 Entering Gaussian System, Link 0=g16
 Initial command:
 /apps/gaussian/g16c01/g16/l1.exe "/jobfs/36697566.gadi-pbs/Gau-869898.inp" -scrdir="/jobfs/36697566.gadi-pbs/"
 Entering Link 1 = /apps/gaussian/g16c01/g16/l1.exe PID=    869899.
  
 Copyright (c) 1988-2019, Gaussian, Inc.  All Rights Reserved.
  
 This is part of the Gaussian(R) 16 program.  It is based on
 the Gaussian(R) 09 system (copyright 2009, Gaussian, Inc.),
 the Gaussian(R) 03 system (copyright 2003, Gaussian, Inc.),
 the Gaussian(R) 98 system (copyright 1998, Gaussian, Inc.),
 the Gaussian(R) 94 system (copyright 1995, Gaussian, Inc.),
 the Gaussian 92(TM) system (copyright 1992, Gaussian, Inc.),
 the Gaussian 90(TM) system (copyright 1990, Gaussian, Inc.),
 the Gaussian 88(TM) system (copyright 1988, Gaussian, Inc.),
 the Gaussian 86(TM) system (copyright 1986, Carnegie Mellon
 University), and the Gaussian 82(TM) system (copyright 1983,
 Carnegie Mellon University). Gaussian is a federally registered
 trademark of Gaussian, Inc.
  
 This software contains proprietary and confidential information,
 including trade secrets, belonging to Gaussian, Inc.
  
 This software is provided under written license and may be
 used, copied, transmitted, or stored only in accord with that
 written license.
  
 The following legend is applicable only to US Government
 contracts under FAR:
  
                    RESTRICTED RIGHTS LEGEND
  
 Use, reproduction and disclosure by the US Government is
 subject to restrictions as set forth in subparagraphs (a)
 and (c) of the Commercial Computer Software - Restricted
 Rights clause in FAR 52.227-19.
  
 Gaussian, Inc.
 340 Quinnipiac St., Bldg. 40, Wallingford CT 06492
  
  
 ---------------------------------------------------------------
 Warning -- This program may not be used in any manner that
 competes with the business of Gaussian, Inc. or will provide
 assistance to any competitor of Gaussian, Inc.  The licensee
 of this program is prohibited from giving any competitor of
 Gaussian, Inc. access to this program.  By using this program,
 the user acknowledges that Gaussian, Inc. is engaged in the
 business of creating and licensing software in the field of
 computational chemistry and represents and warrants to the
 licensee that it is not a competitor of Gaussian, Inc. and that
 it will not use this program in any manner prohibited above.
 ---------------------------------------------------------------
  

 Cite this work as:
 Gaussian 16, Revision C.01,
 M. J. Frisch, G. W. Trucks, H. B. Schlegel, G. E. Scuseria, 
 M. A. Robb, J. R. Cheeseman, G. Scalmani, V. Barone, 
 G. A. Petersson, H. Nakatsuji, X. Li, M. Caricato, A. V. Marenich, 
 J. Bloino, B. G. Janesko, R. Gomperts, B. Mennucci, H. P. Hratchian, 
 J. V. Ortiz, A. F. Izmaylov, J. L. Sonnenberg, D. Williams-Young, 
 F. Ding, F. Lipparini, F. Egidi, J. Goings, B. Peng, A. Petrone, 
 T. Henderson, D. Ranasinghe, V. G. Zakrzewski, J. Gao, N. Rega, 
 G. Zheng, W. Liang, M. Hada, M. Ehara, K. Toyota, R. Fukuda, 
 J. Hasegawa, M. Ishida, T. Nakajima, Y. Honda, O. Kitao, H. Nakai, 
 T. Vreven, K. Throssell, J. A. Montgomery, Jr., J. E. Peralta, 
 F. Ogliaro, M. J. Bearpark, J. J. Heyd, E. N. Brothers, K. N. Kudin, 
 V. N. Staroverov, T. A. Keith, R. Kobayashi, J. Normand, 
 K. Raghavachari, A. P. Rendell, J. C. Burant, S. S. Iyengar, 
 J. Tomasi, M. Cossi, J. M. Millam, M. Klene, C. Adamo, R. Cammi, 
 J. W. Ochterski, R. L. Martin, K. Morokuma, O. Farkas, 
 J. B. Foresman, and D. J. Fox, Gaussian, Inc., Wallingford CT, 2019.
 
 ******************************************
 Gaussian 16:  ES64L-G16RevC.01  3-Jul-2019
                15-Mar-2022 
 ******************************************
 %NProcShared=32
 Will use up to   32 processors via shared memory.
 %mem = 128GB
 %Chk=checkgrond1.chk
 ---------------------------------
 #n M062X/6-31G(d,p) Opt=(CalcAll)
 ---------------------------------
 1/10=4,18=20,19=15,26=3,38=1/1,3;
 2/9=110,12=2,17=6,18=5,40=1/2;
 3/5=1,6=6,7=101,11=2,25=1,30=1,71=2,74=-55,140=1/1,2,3;
 4//1;
 5/5=2,38=5/2;
 8/6=4,10=90,11=11/1;
 11/6=1,8=1,9=11,15=111,16=1/1,2,10;
 10/6=1/2;
 6/7=2,8=2,9=2,10=2,18=1,28=1/1;
 7/10=1,25=1/1,2,3,16;
 1/10=4,18=20,19=15,26=3/3(3);
 2/9=110/2;
 7/8=1,9=1,25=1,44=-1/16;
 99//99;
 2/9=110/2;
 3/5=1,6=6,7=101,11=2,25=1,30=1,71=2,74=-55,140=1/1,2,3;
 4/5=5,16=3,69=1/1;
 5/5=2,38=5/2;
 8/6=4,10=90,11=11/1;
 11/6=1,8=1,9=11,15=111,16=1/1,2,10;
 10/6=1/2;
 7/10=1,25=1/1,2,3,16;
 1/10=4,18=20,19=15,26=3/3(-8);
 2/9=110/2;
 6/7=2,8=2,9=2,10=2,18=1,19=2,28=1/1;
 7/8=1,9=1,25=1,44=-1/16;
 99//99;
 --------------------------------------------------
 C13H16 | Equilibrium Geometry | M062X/6-31G(2df,p)
 --------------------------------------------------
 Symbolic Z-matrix:
 Charge =  0 Multiplicity = 1
 C                    -1.7482   -0.6423   -0.0229 
 C                    -2.4863    0.5933    0.5702 
 C                    -0.2279   -0.4408    0.0316 
 C                    -2.2269   -1.8793    0.7672 
 C                    -2.1511   -0.8282   -1.5029 
 C                     0.3049    0.8676   -0.0321 
 C                    -1.8824    1.9088    0.182 
 C                    -0.5814    2.0336   -0.1039 
 C                     0.6656   -1.5245    0.0728 
 C                     1.6933    1.0637   -0.0451 
 C                     2.5594   -0.026     0.0112 
 C                     2.0465   -1.3173    0.0696 
 C                     4.0346    0.1914    0.0023 
 H                    -2.4894    0.5482    1.6678 
 H                    -3.5383    0.579     0.2581 
 H                    -1.882    -2.8167    0.3176 
 H                    -1.8677   -1.853     1.8026 
 H                    -3.322    -1.9263    0.7949 
 H                    -1.8679    0.0338   -2.1176 
 H                    -1.6664   -1.7097   -1.9396 
 H                    -3.2341   -0.9648   -1.6029 
 H                    -2.5232    2.7851    0.1668 
 H                    -0.1608    3.0002   -0.3584 
 H                     0.3052   -2.5487    0.0936 
 H                     2.1013    2.0713   -0.0982 
 H                     2.711    -2.177     0.1026 
 H                     4.2984    1.1233    0.514 
 H                     4.5583   -0.618     0.5221 
 H                     4.401     0.2399   -1.0279 
 

 GradGradGradGradGradGradGradGradGradGradGradGradGradGradGradGradGradGrad
 Berny optimization.
 Initialization pass.
                           ----------------------------
                           !    Initial Parameters    !
                           ! (Angstroms and Degrees)  !
 --------------------------                            --------------------------
 ! Name  Definition              Value          Derivative Info.                !
 --------------------------------------------------------------------------------
 ! R1    R(1,2)                  1.5567         calculate D2E/DX2 analytically  !
 ! R2    R(1,3)                  1.5346         calculate D2E/DX2 analytically  !
 ! R3    R(1,4)                  1.5439         calculate D2E/DX2 analytically  !
 ! R4    R(1,5)                  1.5451         calculate D2E/DX2 analytically  !
 ! R5    R(2,7)                  1.4986         calculate D2E/DX2 analytically  !
 ! R6    R(2,14)                 1.0985         calculate D2E/DX2 analytically  !
 ! R7    R(2,15)                 1.0974         calculate D2E/DX2 analytically  !
 ! R8    R(3,6)                  1.4142         calculate D2E/DX2 analytically  !
 ! R9    R(3,9)                  1.4051         calculate D2E/DX2 analytically  !
 ! R10   R(4,16)                 1.0954         calculate D2E/DX2 analytically  !
 ! R11   R(4,17)                 1.0963         calculate D2E/DX2 analytically  !
 ! R12   R(4,18)                 1.0965         calculate D2E/DX2 analytically  !
 ! R13   R(5,19)                 1.0959         calculate D2E/DX2 analytically  !
 ! R14   R(5,20)                 1.0967         calculate D2E/DX2 analytically  !
 ! R15   R(5,21)                 1.0962         calculate D2E/DX2 analytically  !
 ! R16   R(6,8)                  1.4664         calculate D2E/DX2 analytically  !
 ! R17   R(6,10)                 1.4022         calculate D2E/DX2 analytically  !
 ! R18   R(7,8)                  1.3379         calculate D2E/DX2 analytically  !
 ! R19   R(7,22)                 1.0857         calculate D2E/DX2 analytically  !
 ! R20   R(8,23)                 1.0844         calculate D2E/DX2 analytically  !
 ! R21   R(9,12)                 1.3964         calculate D2E/DX2 analytically  !
 ! R22   R(9,24)                 1.086          calculate D2E/DX2 analytically  !
 ! R23   R(10,11)                1.3931         calculate D2E/DX2 analytically  !
 ! R24   R(10,25)                1.0884         calculate D2E/DX2 analytically  !
 ! R25   R(11,12)                1.3907         calculate D2E/DX2 analytically  !
 ! R26   R(11,13)                1.4912         calculate D2E/DX2 analytically  !
 ! R27   R(12,26)                1.0871         calculate D2E/DX2 analytically  !
 ! R28   R(13,27)                1.0954         calculate D2E/DX2 analytically  !
 ! R29   R(13,28)                1.0953         calculate D2E/DX2 analytically  !
 ! R30   R(13,29)                1.0945         calculate D2E/DX2 analytically  !
 ! A1    A(2,1,3)              110.6089         calculate D2E/DX2 analytically  !
 ! A2    A(2,1,4)              107.0955         calculate D2E/DX2 analytically  !
 ! A3    A(2,1,5)              109.6828         calculate D2E/DX2 analytically  !
 ! A4    A(3,1,4)              113.2168         calculate D2E/DX2 analytically  !
 ! A5    A(3,1,5)              107.9481         calculate D2E/DX2 analytically  !
 ! A6    A(4,1,5)              108.2371         calculate D2E/DX2 analytically  !
 ! A7    A(1,2,7)              114.0153         calculate D2E/DX2 analytically  !
 ! A8    A(1,2,14)             110.4525         calculate D2E/DX2 analytically  !
 ! A9    A(1,2,15)             109.623          calculate D2E/DX2 analytically  !
 ! A10   A(7,2,14)             107.2169         calculate D2E/DX2 analytically  !
 ! A11   A(7,2,15)             108.9086         calculate D2E/DX2 analytically  !
 ! A12   A(14,2,15)            106.3148         calculate D2E/DX2 analytically  !
 ! A13   A(1,3,6)              119.5477         calculate D2E/DX2 analytically  !
 ! A14   A(1,3,9)              121.9877         calculate D2E/DX2 analytically  !
 ! A15   A(6,3,9)              118.3792         calculate D2E/DX2 analytically  !
 ! A16   A(1,4,16)             112.2095         calculate D2E/DX2 analytically  !
 ! A17   A(1,4,17)             111.256          calculate D2E/DX2 analytically  !
 ! A18   A(1,4,18)             110.9131         calculate D2E/DX2 analytically  !
 ! A19   A(16,4,17)            107.7602         calculate D2E/DX2 analytically  !
 ! A20   A(16,4,18)            106.7484         calculate D2E/DX2 analytically  !
 ! A21   A(17,4,18)            107.7235         calculate D2E/DX2 analytically  !
 ! A22   A(1,5,19)             112.0392         calculate D2E/DX2 analytically  !
 ! A23   A(1,5,20)             111.2779         calculate D2E/DX2 analytically  !
 ! A24   A(1,5,21)             111.101          calculate D2E/DX2 analytically  !
 ! A25   A(19,5,20)            107.137          calculate D2E/DX2 analytically  !
 ! A26   A(19,5,21)            107.587          calculate D2E/DX2 analytically  !
 ! A27   A(20,5,21)            107.4682         calculate D2E/DX2 analytically  !
 ! A28   A(3,6,8)              120.6758         calculate D2E/DX2 analytically  !
 ! A29   A(3,6,10)             120.1887         calculate D2E/DX2 analytically  !
 ! A30   A(8,6,10)             119.1303         calculate D2E/DX2 analytically  !
 ! A31   A(2,7,8)              121.9443         calculate D2E/DX2 analytically  !
 ! A32   A(2,7,22)             118.3125         calculate D2E/DX2 analytically  !
 ! A33   A(8,7,22)             119.7136         calculate D2E/DX2 analytically  !
 ! A34   A(6,8,7)              120.2066         calculate D2E/DX2 analytically  !
 ! A35   A(6,8,23)             119.0667         calculate D2E/DX2 analytically  !
 ! A36   A(7,8,23)             120.6945         calculate D2E/DX2 analytically  !
 ! A37   A(3,9,12)             120.9525         calculate D2E/DX2 analytically  !
 ! A38   A(3,9,24)             121.125          calculate D2E/DX2 analytically  !
 ! A39   A(12,9,24)            117.9168         calculate D2E/DX2 analytically  !
 ! A40   A(6,10,11)            120.3847         calculate D2E/DX2 analytically  !
 ! A41   A(6,10,25)            120.0725         calculate D2E/DX2 analytically  !
 ! A42   A(11,10,25)           119.5428         calculate D2E/DX2 analytically  !
 ! A43   A(10,11,12)           119.9156         calculate D2E/DX2 analytically  !
 ! A44   A(10,11,13)           120.0509         calculate D2E/DX2 analytically  !
 ! A45   A(12,11,13)           120.0329         calculate D2E/DX2 analytically  !
 ! A46   A(9,12,11)            120.1731         calculate D2E/DX2 analytically  !
 ! A47   A(9,12,26)            119.1492         calculate D2E/DX2 analytically  !
 ! A48   A(11,12,26)           120.6745         calculate D2E/DX2 analytically  !
 ! A49   A(11,13,27)           111.0693         calculate D2E/DX2 analytically  !
 ! A50   A(11,13,28)           111.2515         calculate D2E/DX2 analytically  !
 ! A51   A(11,13,29)           110.0758         calculate D2E/DX2 analytically  !
 ! A52   A(27,13,28)           106.9691         calculate D2E/DX2 analytically  !
 ! A53   A(27,13,29)           108.7465         calculate D2E/DX2 analytically  !
 ! A54   A(28,13,29)           108.6262         calculate D2E/DX2 analytically  !
 ! D1    D(3,1,2,7)             40.6649         calculate D2E/DX2 analytically  !
 ! D2    D(3,1,2,14)           -80.1324         calculate D2E/DX2 analytically  !
 ! D3    D(3,1,2,15)           163.0426         calculate D2E/DX2 analytically  !
 ! D4    D(4,1,2,7)            164.4645         calculate D2E/DX2 analytically  !
 ! D5    D(4,1,2,14)            43.6672         calculate D2E/DX2 analytically  !
 ! D6    D(4,1,2,15)           -73.1578         calculate D2E/DX2 analytically  !
 ! D7    D(5,1,2,7)            -78.2934         calculate D2E/DX2 analytically  !
 ! D8    D(5,1,2,14)           160.9092         calculate D2E/DX2 analytically  !
 ! D9    D(5,1,2,15)            44.0842         calculate D2E/DX2 analytically  !
 ! D10   D(2,1,3,6)            -29.0034         calculate D2E/DX2 analytically  !
 ! D11   D(2,1,3,9)            154.4127         calculate D2E/DX2 analytically  !
 ! D12   D(4,1,3,6)           -149.2051         calculate D2E/DX2 analytically  !
 ! D13   D(4,1,3,9)             34.211          calculate D2E/DX2 analytically  !
 ! D14   D(5,1,3,6)             91.0005         calculate D2E/DX2 analytically  !
 ! D15   D(5,1,3,9)            -85.5834         calculate D2E/DX2 analytically  !
 ! D16   D(2,1,4,16)           170.9307         calculate D2E/DX2 analytically  !
 ! D17   D(2,1,4,17)           -68.2487         calculate D2E/DX2 analytically  !
 ! D18   D(2,1,4,18)            51.6407         calculate D2E/DX2 analytically  !
 ! D19   D(3,1,4,16)           -66.8859         calculate D2E/DX2 analytically  !
 ! D20   D(3,1,4,17)            53.9348         calculate D2E/DX2 analytically  !
 ! D21   D(3,1,4,18)           173.8242         calculate D2E/DX2 analytically  !
 ! D22   D(5,1,4,16)            52.7432         calculate D2E/DX2 analytically  !
 ! D23   D(5,1,4,17)           173.5638         calculate D2E/DX2 analytically  !
 ! D24   D(5,1,4,18)           -66.5468         calculate D2E/DX2 analytically  !
 ! D25   D(2,1,5,19)            61.648          calculate D2E/DX2 analytically  !
 ! D26   D(2,1,5,20)          -178.4317         calculate D2E/DX2 analytically  !
 ! D27   D(2,1,5,21)           -58.7244         calculate D2E/DX2 analytically  !
 ! D28   D(3,1,5,19)           -58.9374         calculate D2E/DX2 analytically  !
 ! D29   D(3,1,5,20)            60.9829         calculate D2E/DX2 analytically  !
 ! D30   D(3,1,5,21)          -179.3098         calculate D2E/DX2 analytically  !
 ! D31   D(4,1,5,19)           178.1728         calculate D2E/DX2 analytically  !
 ! D32   D(4,1,5,20)           -61.9068         calculate D2E/DX2 analytically  !
 ! D33   D(4,1,5,21)            57.8005         calculate D2E/DX2 analytically  !
 ! D34   D(1,2,7,8)            -28.0932         calculate D2E/DX2 analytically  !
 ! D35   D(1,2,7,22)           153.896          calculate D2E/DX2 analytically  !
 ! D36   D(14,2,7,8)            94.4921         calculate D2E/DX2 analytically  !
 ! D37   D(14,2,7,22)          -83.5187         calculate D2E/DX2 analytically  !
 ! D38   D(15,2,7,8)          -150.8617         calculate D2E/DX2 analytically  !
 ! D39   D(15,2,7,22)           31.1275         calculate D2E/DX2 analytically  !
 ! D40   D(1,3,6,8)              2.0757         calculate D2E/DX2 analytically  !
 ! D41   D(1,3,6,10)          -177.0791         calculate D2E/DX2 analytically  !
 ! D42   D(9,3,6,8)            178.7827         calculate D2E/DX2 analytically  !
 ! D43   D(9,3,6,10)            -0.3721         calculate D2E/DX2 analytically  !
 ! D44   D(1,3,9,12)           177.4882         calculate D2E/DX2 analytically  !
 ! D45   D(1,3,9,24)            -1.6183         calculate D2E/DX2 analytically  !
 ! D46   D(6,3,9,12)             0.8659         calculate D2E/DX2 analytically  !
 ! D47   D(6,3,9,24)          -178.2406         calculate D2E/DX2 analytically  !
 ! D48   D(3,6,8,7)             14.6898         calculate D2E/DX2 analytically  !
 ! D49   D(3,6,8,23)          -167.3588         calculate D2E/DX2 analytically  !
 ! D50   D(10,6,8,7)          -166.1465         calculate D2E/DX2 analytically  !
 ! D51   D(10,6,8,23)           11.8049         calculate D2E/DX2 analytically  !
 ! D52   D(3,6,10,11)           -0.3192         calculate D2E/DX2 analytically  !
 ! D53   D(3,6,10,25)          179.7539         calculate D2E/DX2 analytically  !
 ! D54   D(8,6,10,11)         -179.4871         calculate D2E/DX2 analytically  !
 ! D55   D(8,6,10,25)            0.586          calculate D2E/DX2 analytically  !
 ! D56   D(2,7,8,6)             -0.5395         calculate D2E/DX2 analytically  !
 ! D57   D(2,7,8,23)          -178.4572         calculate D2E/DX2 analytically  !
 ! D58   D(22,7,8,6)           177.4442         calculate D2E/DX2 analytically  !
 ! D59   D(22,7,8,23)           -0.4735         calculate D2E/DX2 analytically  !
 ! D60   D(3,9,12,11)           -0.6698         calculate D2E/DX2 analytically  !
 ! D61   D(3,9,12,26)          179.9729         calculate D2E/DX2 analytically  !
 ! D62   D(24,9,12,11)         178.4646         calculate D2E/DX2 analytically  !
 ! D63   D(24,9,12,26)          -0.8928         calculate D2E/DX2 analytically  !
 ! D64   D(6,10,11,12)           0.5304         calculate D2E/DX2 analytically  !
 ! D65   D(6,10,11,13)        -179.7609         calculate D2E/DX2 analytically  !
 ! D66   D(25,10,11,12)       -179.5423         calculate D2E/DX2 analytically  !
 ! D67   D(25,10,11,13)          0.1663         calculate D2E/DX2 analytically  !
 ! D68   D(10,11,12,9)          -0.0401         calculate D2E/DX2 analytically  !
 ! D69   D(10,11,12,26)        179.3074         calculate D2E/DX2 analytically  !
 ! D70   D(13,11,12,9)        -179.7487         calculate D2E/DX2 analytically  !
 ! D71   D(13,11,12,26)         -0.4013         calculate D2E/DX2 analytically  !
 ! D72   D(10,11,13,27)         33.0675         calculate D2E/DX2 analytically  !
 ! D73   D(10,11,13,28)        152.107          calculate D2E/DX2 analytically  !
 ! D74   D(10,11,13,29)        -87.4289         calculate D2E/DX2 analytically  !
 ! D75   D(12,11,13,27)       -147.2243         calculate D2E/DX2 analytically  !
 ! D76   D(12,11,13,28)        -28.1847         calculate D2E/DX2 analytically  !
 ! D77   D(12,11,13,29)         92.2794         calculate D2E/DX2 analytically  !
 --------------------------------------------------------------------------------
 Trust Radius=3.00D-01 FncErr=1.00D-07 GrdErr=1.00D-06 EigMax=2.50D+02 EigMin=1.00D-04
 Number of steps in this run=    171 maximum allowed number of steps=    174.
 GradGradGradGradGradGradGradGradGradGradGradGradGradGradGradGradGradGrad

                          Input orientation:                          
 ---------------------------------------------------------------------
 Center     Atomic      Atomic             Coordinates (Angstroms)
 Number     Number       Type             X           Y           Z
 ---------------------------------------------------------------------
      1          6           0       -1.748200   -0.642300   -0.022900
      2          6           0       -2.486300    0.593300    0.570200
      3          6           0       -0.227900   -0.440800    0.031600
      4          6           0       -2.226900   -1.879300    0.767200
      5          6           0       -2.151100   -0.828200   -1.502900
      6          6           0        0.304900    0.867600   -0.032100
      7          6           0       -1.882400    1.908800    0.182000
      8          6           0       -0.581400    2.033600   -0.103900
      9          6           0        0.665600   -1.524500    0.072800
     10          6           0        1.693300    1.063700   -0.045100
     11          6           0        2.559400   -0.026000    0.011200
     12          6           0        2.046500   -1.317300    0.069600
     13          6           0        4.034600    0.191400    0.002300
     14          1           0       -2.489400    0.548200    1.667800
     15          1           0       -3.538300    0.579000    0.258100
     16          1           0       -1.882000   -2.816700    0.317600
     17          1           0       -1.867700   -1.853000    1.802600
     18          1           0       -3.322000   -1.926300    0.794900
     19          1           0       -1.867900    0.033800   -2.117600
     20          1           0       -1.666400   -1.709700   -1.939600
     21          1           0       -3.234100   -0.964800   -1.602900
     22          1           0       -2.523200    2.785100    0.166800
     23          1           0       -0.160800    3.000200   -0.358400
     24          1           0        0.305200   -2.548700    0.093600
     25          1           0        2.101300    2.071300   -0.098200
     26          1           0        2.711000   -2.177000    0.102600
     27          1           0        4.298400    1.123300    0.514000
     28          1           0        4.558300   -0.618000    0.522100
     29          1           0        4.401000    0.239900   -1.027900
 ---------------------------------------------------------------------
                    Distance matrix (angstroms):
                    1          2          3          4          5
     1  C    0.000000
     2  C    1.556684   0.000000
     3  C    1.534563   2.541618   0.000000
     4  C    1.543885   2.493962   2.570290   0.000000
     5  C    1.545085   2.535895   2.490676   2.502781   0.000000
     6  C    2.548549   2.868589   1.414158   3.820255   3.327300
     7  C    2.562831   1.498644   2.877605   3.848486   3.225253
     8  C    2.920347   2.481435   2.503194   4.333275   3.551205
     9  C    2.571744   3.829746   1.405150   2.995769   3.301736
    10  C    3.841204   4.250756   2.441396   4.968808   4.525912
    11  C    4.351598   5.114206   2.818070   5.187960   5.012468
    12  C    3.855377   4.944418   2.437743   4.366284   4.509082
    13  C    5.842642   6.557909   4.309227   6.639221   6.447332
    14  H    2.196619   1.098531   2.961360   2.602449   3.473077
    15  H    2.185176   1.097413   3.471317   2.832347   2.646820
    16  H    2.204962   3.472331   2.909080   1.095361   2.709385
    17  H    2.193747   2.808177   2.796372   1.096252   3.472299
    18  H    2.189589   2.664070   3.516076   1.096458   2.802983
    19  H    2.204361   2.814201   2.744796   3.480072   1.095948
    20  H    2.195398   3.503590   2.750458   2.769421   1.096669
    21  H    2.192785   2.776553   3.461705   2.732789   1.096152
    22  H    3.519046   2.228919   3.961453   4.712208   3.997786
    23  H    3.987506   3.473243   3.463681   5.417127   4.464059
    24  H    2.804351   4.229868   2.175151   2.704323   3.397402
    25  H    4.710408   4.865934   3.428216   5.923637   5.335090
    26  H    4.717576   5.908057   3.414171   4.991310   5.294989
    27  H    6.321944   6.805602   4.813160   7.187437   7.033654
    28  H    6.330052   7.148143   4.814530   6.905787   7.011480
    29  H    6.292930   7.079104   4.797146   7.186268   6.655560
                    6          7          8          9         10
     6  C    0.000000
     7  C    2.431916   0.000000
     8  C    1.466369   1.337877   0.000000
     9  C    2.421415   4.276889   3.774428   0.000000
    10  C    1.402241   3.681222   2.473545   2.787265   0.000000
    11  C    2.425524   4.847908   3.757636   2.415735   1.393106
    12  C    2.795944   5.084940   4.261982   1.396362   2.409786
    13  C    3.790659   6.163817   4.971160   3.781461   2.498968
    14  H    3.286303   2.104111   2.997632   4.098065   4.549148
    15  H    3.864931   2.125127   3.315141   4.704447   5.262747
    16  H    4.298708   4.727445   5.039309   2.867050   5.288840
    17  H    3.935477   4.096059   4.516079   3.085082   4.960026
    18  H    4.652334   4.141991   4.898932   4.072324   5.899062
    19  H    3.124995   2.967153   3.115970   3.693883   4.247128
    20  H    3.763915   4.200165   4.308052   3.085819   4.750628
    21  H    4.283646   3.642875   4.274836   4.281226   5.551651
    22  H    3.422648   1.085706   2.099671   5.361896   4.559275
    23  H    2.207109   2.108813   1.084431   4.619716   2.699236
    24  H    3.418612   4.966157   4.671460   1.085959   3.872401
    25  H    2.163404   3.996847   2.682971   3.875597   1.088366
    26  H    3.882918   6.148121   5.348990   2.147162   3.399951
    27  H    4.038768   6.239353   5.002289   4.516939   2.665087
    28  H    4.539334   6.926976   5.817162   4.022030   3.370171
    29  H    4.261885   6.612881   5.375448   4.275262   2.996028
                   11         12         13         14         15
    11  C    0.000000
    12  C    1.390659   0.000000
    13  C    1.491160   2.496647   0.000000
    14  H    5.344568   5.158364   6.742683   0.000000
    15  H    6.132612   5.900973   7.587126   1.757383   0.000000
    16  H    5.254324   4.212222   6.644865   3.676211   3.778578
    17  H    5.113341   4.314073   6.500600   2.484038   3.330317
    18  H    6.230264   5.451397   7.696261   2.752876   2.571278
    19  H    4.912876   4.683145   6.273621   3.870416   2.954899
    20  H    4.949530   4.239869   6.315581   4.334602   3.684025
    21  H    6.086978   5.550338   7.533091   3.679840   2.437043
    22  H    5.810277   6.141766   7.054012   2.694043   2.430152
    23  H    4.085827   4.867871   5.061704   3.942102   4.201165
    24  H    3.384113   2.132850   4.628705   4.458552   4.958030
    25  H    2.149533   3.393195   2.698476   5.149089   5.844570
    26  H    2.158272   1.087076   2.715013   6.076243   6.831798
    27  H    2.144253   3.350384   1.095383   6.909141   7.859746
    28  H    2.146412   2.646302   1.095254   7.234827   8.188861
    29  H    2.131179   3.028704   1.094492   7.405367   8.049924
                   16         17         18         19         20
    16  H    0.000000
    17  H    1.770352   0.000000
    18  H    1.759042   1.770825   0.000000
    19  H    3.749100   4.350630   3.799876   0.000000
    20  H    2.523269   3.750349   3.203969   1.764108   0.000000
    21  H    2.990991   3.775365   2.584889   1.768791   1.768029
    22  H    5.640394   4.961602   4.819739   3.635595   5.037286
    23  H    6.103755   5.580052   5.966045   3.848182   5.191357
    24  H    2.214914   2.850644   3.746436   4.034981   2.953816
    25  H    6.319186   5.896281   6.796368   4.897339   5.646439
    26  H    4.642315   4.894841   6.077764   5.548265   4.852894
    27  H    7.332088   6.967040   8.212762   6.792318   7.044493
    28  H    6.808345   6.667712   7.992822   6.977744   6.782232
    29  H    7.115424   7.189476   8.225555   6.366241   6.437816
                   21         22         23         24         25
    21  H    0.000000
    22  H    4.207014   0.000000
    23  H    5.168673   2.429617   0.000000
    24  H    4.232434   6.037767   5.586748   0.000000
    25  H    6.320484   4.686762   2.459198   4.960561   0.000000
    26  H    6.302569   7.212725   5.938279   2.434361   4.296523
    27  H    8.098147   7.029677   4.916127   5.441136   2.469968
    28  H    8.084392   7.864793   6.011369   4.690424   3.695126
    29  H    7.750915   7.473279   5.373779   5.080318   3.083340
                   26         27         28         29
    26  H    0.000000
    27  H    3.685250   0.000000
    28  H    2.453361   1.760608   0.000000
    29  H    3.158407   1.779994   1.778549   0.000000
 Stoichiometry    C13H16
 Framework group  C1[X(C13H16)]
 Deg. of freedom    81
 Full point group                 C1      NOp   1
 Largest Abelian subgroup         C1      NOp   1
 Largest concise Abelian subgroup C1      NOp   1
                         Standard orientation:                         
 ---------------------------------------------------------------------
 Center     Atomic      Atomic             Coordinates (Angstroms)
 Number     Number       Type             X           Y           Z
 ---------------------------------------------------------------------
      1          6           0        1.725150   -0.532285    0.016682
      2          6           0        2.415404    0.724526   -0.589325
      3          6           0        0.198264   -0.388927   -0.037658
      4          6           0        2.249472   -1.757904   -0.762114
      5          6           0        2.136294   -0.688477    1.497847
      6          6           0       -0.383557    0.898956    0.014159
      7          6           0        1.762595    2.019960   -0.212994
      8          6           0        0.458098    2.098262    0.073487
      9          6           0       -0.653666   -1.505972   -0.067171
     10          6           0       -1.778365    1.042557    0.027186
     11          6           0       -2.602703   -0.079594   -0.017407
     12          6           0       -2.041409   -1.351091   -0.064061
     13          6           0       -4.085058    0.081970   -0.008565
     14          1           0        2.419091    0.668944   -1.686442
     15          1           0        3.467509    0.753022   -0.278555
     16          1           0        1.940717   -2.703270   -0.303020
     17          1           0        1.888483   -1.755232   -1.797222
     18          1           0        3.345538   -1.763746   -0.790873
     19          1           0        1.821332    0.168118    2.104598
     20          1           0        1.685712   -1.583394    1.943697
     21          1           0        3.223786   -0.783071    1.597663
     22          1           0        2.369821    2.919960   -0.207130
     23          1           0        0.001513    3.050695    0.319236
     24          1           0       -0.254823   -2.515972   -0.078592
     25          1           0       -2.224114    2.034483    0.071131
     26          1           0       -2.672964   -2.235572   -0.087851
     27          1           0       -4.384422    0.998232   -0.528862
     28          1           0       -4.578310   -0.751643   -0.519812
     29          1           0       -4.451983    0.126565    1.021625
 ---------------------------------------------------------------------
 Rotational constants (GHZ):           1.4898764           0.6103534           0.4810655
 Standard basis: 6-31G(d,p) (6D, 7F)
 There are   275 symmetry adapted cartesian basis functions of A   symmetry.
 There are   275 symmetry adapted basis functions of A   symmetry.
   275 basis functions,   476 primitive gaussians,   275 cartesian basis functions
    47 alpha electrons       47 beta electrons
       nuclear repulsion energy       775.2637083878 Hartrees.
 NAtoms=   29 NActive=   29 NUniq=   29 SFac= 1.00D+00 NAtFMM=   60 NAOKFM=F Big=F
 Integral buffers will be    131072 words long.
 Raffenetti 2 integral format.
 Two-electron integral symmetry is turned on.
 One-electron integrals computed using PRISM.
 NBasis=   275 RedAO= T EigKep=  3.54D-04  NBF=   275
 NBsUse=   275 1.00D-06 EigRej= -1.00D+00 NBFU=   275
 ExpMin= 1.61D-01 ExpMax= 3.05D+03 ExpMxC= 4.57D+02 IAcc=3 IRadAn=         5 AccDes= 0.00D+00
 Harris functional with IExCor= 1009 and IRadAn=       5 diagonalized for initial guess.
 HarFok:  IExCor= 1009 AccDes= 0.00D+00 IRadAn=         5 IDoV= 1 UseB2=F ITyADJ=14
 ICtDFT=  3500011 ScaDFX=  1.000000  1.000000  1.000000  1.000000
 FoFCou: FMM=F IPFlag=           0 FMFlag=      100000 FMFlg1=           0
         NFxFlg=           0 DoJE=T BraDBF=F KetDBF=T FulRan=T
         wScrn=  0.000000 ICntrl=       500 IOpCl=  0 I1Cent=   200000004 NGrid=           0
         NMat0=    1 NMatS0=      1 NMatT0=    0 NMatD0=    1 NMtDS0=    0 NMtDT0=    0
 Petite list used in FoFCou.
 Requested convergence on RMS density matrix=1.00D-08 within 128 cycles.
 Requested convergence on MAX density matrix=1.00D-06.
 Requested convergence on             energy=1.00D-06.
 No special actions if energy rises.
 Integral accuracy reduced to 1.0D-05 until final iterations.
 Initial convergence to 1.0D-05 achieved.  Increase integral accuracy.
 SCF Done:  E(RM062X) =  -504.806378679     A.U. after   13 cycles
            NFock= 13  Conv=0.77D-08     -V/T= 2.0091
 DoSCS=F DFT=T ScalE2(SS,OS)=  1.000000  1.000000
 Range of M.O.s used for correlation:     1   275
 NBasis=   275 NAE=    47 NBE=    47 NFC=     0 NFV=     0
 NROrb=    275 NOA=    47 NOB=    47 NVA=   228 NVB=   228
 Symmetrizing basis deriv contribution to polar:
 IMax=3 JMax=2 DiffMx= 0.00D+00
 G2DrvN: will do    30 centers at a time, making    1 passes.
 Calling FoFCou, ICntrl=  3107 FMM=F I1Cent=   0 AccDes= 0.00D+00.
 End of G2Drv F.D. properties file   721 does not exist.
 End of G2Drv F.D. properties file   722 does not exist.
 End of G2Drv F.D. properties file   788 does not exist.
          IDoAtm=11111111111111111111111111111
          Differentiating once with respect to electric field.
                with respect to dipole field.
          Differentiating once with respect to nuclear coordinates.
 Keep R1 ints in memory in canonical form, NReq=755442358.
          There are    90 degrees of freedom in the 1st order CPHF.  IDoFFX=6 NUNeed=     3.
     87 vectors produced by pass  0 Test12= 1.19D-14 1.11D-09 XBig12= 1.21D+02 5.03D+00.
 AX will form    87 AO Fock derivatives at one time.
     87 vectors produced by pass  1 Test12= 1.19D-14 1.11D-09 XBig12= 1.19D+01 6.89D-01.
     87 vectors produced by pass  2 Test12= 1.19D-14 1.11D-09 XBig12= 1.77D-01 6.88D-02.
     87 vectors produced by pass  3 Test12= 1.19D-14 1.11D-09 XBig12= 1.22D-03 3.26D-03.
     87 vectors produced by pass  4 Test12= 1.19D-14 1.11D-09 XBig12= 4.98D-06 1.89D-04.
     87 vectors produced by pass  5 Test12= 1.19D-14 1.11D-09 XBig12= 1.36D-08 1.06D-05.
     42 vectors produced by pass  6 Test12= 1.19D-14 1.11D-09 XBig12= 3.69D-11 4.29D-07.
      3 vectors produced by pass  7 Test12= 1.19D-14 1.11D-09 XBig12= 9.46D-14 2.92D-08.
      2 vectors produced by pass  8 Test12= 1.19D-14 1.11D-09 XBig12= 2.93D-16 2.44D-09.
 InvSVY:  IOpt=1 It=  1 EMax= 1.07D-14
 Solved reduced A of dimension   569 with    90 vectors.
 Isotropic polarizability for W=    0.000000      133.25 Bohr**3.
 End of Minotr F.D. properties file   721 does not exist.
 End of Minotr F.D. properties file   722 does not exist.
 End of Minotr F.D. properties file   788 does not exist.

 **********************************************************************

            Population analysis using the SCF Density.

 **********************************************************************

 Orbital symmetries:
       Occupied  (A) (A) (A) (A) (A) (A) (A) (A) (A) (A) (A) (A)
                 (A) (A) (A) (A) (A) (A) (A) (A) (A) (A) (A) (A)
                 (A) (A) (A) (A) (A) (A) (A) (A) (A) (A) (A) (A)
                 (A) (A) (A) (A) (A) (A) (A) (A) (A) (A) (A)
       Virtual   (A) (A) (A) (A) (A) (A) (A) (A) (A) (A) (A) (A)
                 (A) (A) (A) (A) (A) (A) (A) (A) (A) (A) (A) (A)
                 (A) (A) (A) (A) (A) (A) (A) (A) (A) (A) (A) (A)
                 (A) (A) (A) (A) (A) (A) (A) (A) (A) (A) (A) (A)
                 (A) (A) (A) (A) (A) (A) (A) (A) (A) (A) (A) (A)
                 (A) (A) (A) (A) (A) (A) (A) (A) (A) (A) (A) (A)
                 (A) (A) (A) (A) (A) (A) (A) (A) (A) (A) (A) (A)
                 (A) (A) (A) (A) (A) (A) (A) (A) (A) (A) (A) (A)
                 (A) (A) (A) (A) (A) (A) (A) (A) (A) (A) (A) (A)
                 (A) (A) (A) (A) (A) (A) (A) (A) (A) (A) (A) (A)
                 (A) (A) (A) (A) (A) (A) (A) (A) (A) (A) (A) (A)
                 (A) (A) (A) (A) (A) (A) (A) (A) (A) (A) (A) (A)
                 (A) (A) (A) (A) (A) (A) (A) (A) (A) (A) (A) (A)
                 (A) (A) (A) (A) (A) (A) (A) (A) (A) (A) (A) (A)
                 (A) (A) (A) (A) (A) (A) (A) (A) (A) (A) (A) (A)
                 (A) (A) (A) (A) (A) (A) (A) (A) (A) (A) (A) (A)
                 (A) (A) (A) (A) (A) (A) (A) (A) (A) (A) (A) (A)
                 (A) (A) (A) (A) (A) (A) (A) (A) (A) (A) (A) (A)
                 (A) (A) (A) (A) (A) (A) (A) (A) (A) (A) (A) (A)
 The electronic state is 1-A.
 Alpha  occ. eigenvalues --  -10.56153 -10.54917 -10.54841 -10.54669 -10.54346
 Alpha  occ. eigenvalues --  -10.54301 -10.54278 -10.53956 -10.53943 -10.53895
 Alpha  occ. eigenvalues --  -10.53567 -10.53334 -10.52958  -0.96775  -0.92292
 Alpha  occ. eigenvalues --   -0.87991  -0.85272  -0.82332  -0.77174  -0.76694
 Alpha  occ. eigenvalues --   -0.75963  -0.68681  -0.66854  -0.64132  -0.57723
 Alpha  occ. eigenvalues --   -0.56188  -0.54885  -0.51672  -0.50788  -0.49183
 Alpha  occ. eigenvalues --   -0.48927  -0.48577  -0.48281  -0.45999  -0.45042
 Alpha  occ. eigenvalues --   -0.43630  -0.43391  -0.41930  -0.41449  -0.41289
 Alpha  occ. eigenvalues --   -0.40162  -0.38949  -0.36367  -0.35411  -0.33841
 Alpha  occ. eigenvalues --   -0.28206  -0.25424
 Alpha virt. eigenvalues --    0.01277   0.04102   0.10578   0.12841   0.15213
 Alpha virt. eigenvalues --    0.15429   0.17445   0.18390   0.19202   0.19674
 Alpha virt. eigenvalues --    0.19992   0.20809   0.21264   0.21497   0.22875
 Alpha virt. eigenvalues --    0.23913   0.24554   0.25524   0.26225   0.26972
 Alpha virt. eigenvalues --    0.27369   0.27929   0.28819   0.30380   0.31713
 Alpha virt. eigenvalues --    0.32339   0.36731   0.38476   0.39357   0.41282
 Alpha virt. eigenvalues --    0.46527   0.50812   0.51663   0.53985   0.54900
 Alpha virt. eigenvalues --    0.55900   0.56856   0.57952   0.58784   0.59892
 Alpha virt. eigenvalues --    0.61491   0.62348   0.63472   0.64381   0.66105
 Alpha virt. eigenvalues --    0.66290   0.66596   0.66924   0.68302   0.70470
 Alpha virt. eigenvalues --    0.71991   0.72825   0.73229   0.74845   0.75505
 Alpha virt. eigenvalues --    0.77079   0.79322   0.80909   0.81846   0.84105
 Alpha virt. eigenvalues --    0.85197   0.85685   0.87707   0.88779   0.89296
 Alpha virt. eigenvalues --    0.90393   0.90706   0.92021   0.93476   0.93749
 Alpha virt. eigenvalues --    0.94232   0.94481   0.95638   0.96542   0.97037
 Alpha virt. eigenvalues --    0.98298   0.99401   1.00575   1.01254   1.02693
 Alpha virt. eigenvalues --    1.02833   1.04530   1.05522   1.08013   1.09618
 Alpha virt. eigenvalues --    1.11211   1.15152   1.16759   1.19324   1.21304
 Alpha virt. eigenvalues --    1.23396   1.27831   1.29560   1.31784   1.35132
 Alpha virt. eigenvalues --    1.37790   1.38406   1.40705   1.44334   1.45753
 Alpha virt. eigenvalues --    1.47095   1.48344   1.49734   1.51075   1.53432
 Alpha virt. eigenvalues --    1.55183   1.58671   1.59605   1.66125   1.71483
 Alpha virt. eigenvalues --    1.77192   1.79243   1.80258   1.82530   1.84044
 Alpha virt. eigenvalues --    1.85145   1.85524   1.87393   1.88697   1.88998
 Alpha virt. eigenvalues --    1.89685   1.90785   1.91283   1.93468   1.95291
 Alpha virt. eigenvalues --    1.97405   1.97682   1.99181   2.00589   2.01630
 Alpha virt. eigenvalues --    2.05200   2.06365   2.07462   2.09126   2.09945
 Alpha virt. eigenvalues --    2.10779   2.10995   2.11997   2.12668   2.15458
 Alpha virt. eigenvalues --    2.15851   2.17429   2.18591   2.19398   2.19613
 Alpha virt. eigenvalues --    2.21233   2.22834   2.24009   2.26100   2.26849
 Alpha virt. eigenvalues --    2.28662   2.31196   2.33743   2.34379   2.36752
 Alpha virt. eigenvalues --    2.38894   2.39749   2.42539   2.44787   2.45096
 Alpha virt. eigenvalues --    2.45824   2.47194   2.49022   2.52509   2.54488
 Alpha virt. eigenvalues --    2.55790   2.57240   2.58743   2.59828   2.62814
 Alpha virt. eigenvalues --    2.63226   2.64410   2.65231   2.66687   2.68180
 Alpha virt. eigenvalues --    2.70202   2.71144   2.72703   2.73089   2.74771
 Alpha virt. eigenvalues --    2.77209   2.78053   2.79992   2.81480   2.85041
 Alpha virt. eigenvalues --    2.86294   2.87062   2.88303   2.90090   2.90685
 Alpha virt. eigenvalues --    2.91722   2.95927   2.97732   3.03125   3.04612
 Alpha virt. eigenvalues --    3.07695   3.15608   3.18038   3.18163   3.21661
 Alpha virt. eigenvalues --    3.23961   3.26567   3.30029   3.30456   3.32944
 Alpha virt. eigenvalues --    3.42070   3.42104   3.43039   3.43894   3.45941
 Alpha virt. eigenvalues --    3.46901   3.48653   3.50649   3.65728   3.78031
 Alpha virt. eigenvalues --    4.16523   4.18368   4.21649   4.26213   4.35208
 Alpha virt. eigenvalues --    4.40800   4.46055   4.53207   4.57331   4.60563
 Alpha virt. eigenvalues --    4.66439   4.74838   4.92250
          Condensed to atoms (all electrons):
               1          2          3          4          5          6
     1  C    5.016703   0.367197   0.344074   0.369462   0.367702  -0.044021
     2  C    0.367197   5.029922  -0.040660  -0.060188  -0.060037  -0.022871
     3  C    0.344074  -0.040660   4.866423  -0.049117  -0.063289   0.568838
     4  C    0.369462  -0.060188  -0.049117   5.008235  -0.063580   0.003198
     5  C    0.367702  -0.060037  -0.063289  -0.063580   5.012798  -0.005048
     6  C   -0.044021  -0.022871   0.568838   0.003198  -0.005048   4.733655
     7  C   -0.023189   0.356972  -0.032277   0.004552  -0.002424  -0.022539
     8  C   -0.025441  -0.048294  -0.049999   0.000641  -0.000268   0.404974
     9  C   -0.068211   0.004718   0.535051  -0.006383  -0.004441  -0.022077
    10  C    0.008178   0.000143  -0.049264  -0.000140  -0.000154   0.498421
    11  C   -0.000077   0.000011  -0.031696  -0.000000   0.000029  -0.019353
    12  C    0.006096  -0.000152  -0.038786   0.000230  -0.000084  -0.042897
    13  C    0.000006  -0.000000   0.001090  -0.000000   0.000000   0.004913
    14  H   -0.031932   0.377554  -0.002412  -0.006349   0.005803   0.002647
    15  H   -0.033423   0.379701   0.004754  -0.003008  -0.008365   0.000527
    16  H   -0.025442   0.005221  -0.008204   0.379842  -0.005025  -0.000238
    17  H   -0.031426  -0.004937  -0.002389   0.384259   0.005509   0.000112
    18  H   -0.031761  -0.006506   0.004733   0.384456  -0.003255  -0.000023
    19  H   -0.028484  -0.006428  -0.006082   0.005371   0.386722   0.001611
    20  H   -0.028563   0.005388  -0.006404  -0.005815   0.384953  -0.000217
    21  H   -0.031935  -0.005826   0.006281  -0.004304   0.376476   0.000120
    22  H    0.002969  -0.043371   0.000599  -0.000122   0.000032   0.003451
    23  H   -0.000073   0.005418   0.004513   0.000006   0.000001  -0.043575
    24  H   -0.008336   0.000137  -0.039350   0.002114   0.000046   0.003551
    25  H   -0.000150   0.000007   0.004053   0.000002   0.000001  -0.037422
    26  H   -0.000154   0.000002   0.003167   0.000002   0.000001   0.000794
    27  H   -0.000000   0.000000   0.000010  -0.000000   0.000000   0.000303
    28  H   -0.000000  -0.000000  -0.000020   0.000000   0.000000  -0.000133
    29  H    0.000000  -0.000000   0.000037   0.000000  -0.000000  -0.000211
               7          8          9         10         11         12
     1  C   -0.023189  -0.025441  -0.068211   0.008178  -0.000077   0.006096
     2  C    0.356972  -0.048294   0.004718   0.000143   0.000011  -0.000152
     3  C   -0.032277  -0.049999   0.535051  -0.049264  -0.031696  -0.038786
     4  C    0.004552   0.000641  -0.006383  -0.000140  -0.000000   0.000230
     5  C   -0.002424  -0.000268  -0.004441  -0.000154   0.000029  -0.000084
     6  C   -0.022539   0.404974  -0.022077   0.498421  -0.019353  -0.042897
     7  C    4.967554   0.623133  -0.000497   0.007000  -0.000397   0.000036
     8  C    0.623133   4.890593   0.008588  -0.064603   0.006790   0.000377
     9  C   -0.000497   0.008588   4.942964  -0.063396  -0.027655   0.510902
    10  C    0.007000  -0.064603  -0.063396   5.028974   0.528996  -0.033359
    11  C   -0.000397   0.006790  -0.027655   0.528996   4.738769   0.573034
    12  C    0.000036   0.000377   0.510902  -0.033359   0.573034   4.885964
    13  C    0.000003  -0.000225   0.006242  -0.055859   0.342814  -0.060008
    14  H   -0.037781  -0.006574  -0.000100   0.000037  -0.000008   0.000000
    15  H   -0.032669   0.003519  -0.000117   0.000006   0.000000   0.000001
    16  H   -0.000152  -0.000009   0.002059   0.000005  -0.000005   0.000192
    17  H   -0.000091   0.000006   0.001093  -0.000009  -0.000006  -0.000107
    18  H    0.000257  -0.000043   0.000077   0.000002   0.000000  -0.000002
    19  H    0.005119   0.002797  -0.000219  -0.000102  -0.000012   0.000022
    20  H   -0.000062  -0.000025   0.003658   0.000004  -0.000013  -0.000011
    21  H   -0.000457  -0.000095   0.000004   0.000004  -0.000000   0.000001
    22  H    0.375511  -0.026761   0.000012  -0.000196   0.000003  -0.000000
    23  H   -0.044483   0.380920  -0.000125  -0.006867   0.000314  -0.000001
    24  H   -0.000003  -0.000147   0.369461   0.001070   0.003566  -0.033629
    25  H    0.000338  -0.006739   0.000416   0.370318  -0.043708   0.004746
    26  H   -0.000000   0.000010  -0.034312   0.004580  -0.041225   0.372631
    27  H   -0.000000  -0.000005  -0.000200  -0.003955  -0.033855   0.002948
    28  H   -0.000000   0.000003   0.000353   0.002885  -0.033684  -0.003804
    29  H   -0.000000   0.000003  -0.000208  -0.002556  -0.030439  -0.001970
              13         14         15         16         17         18
     1  C    0.000006  -0.031932  -0.033423  -0.025442  -0.031426  -0.031761
     2  C   -0.000000   0.377554   0.379701   0.005221  -0.004937  -0.006506
     3  C    0.001090  -0.002412   0.004754  -0.008204  -0.002389   0.004733
     4  C   -0.000000  -0.006349  -0.003008   0.379842   0.384259   0.384456
     5  C    0.000000   0.005803  -0.008365  -0.005025   0.005509  -0.003255
     6  C    0.004913   0.002647   0.000527  -0.000238   0.000112  -0.000023
     7  C    0.000003  -0.037781  -0.032669  -0.000152  -0.000091   0.000257
     8  C   -0.000225  -0.006574   0.003519  -0.000009   0.000006  -0.000043
     9  C    0.006242  -0.000100  -0.000117   0.002059   0.001093   0.000077
    10  C   -0.055859   0.000037   0.000006   0.000005  -0.000009   0.000002
    11  C    0.342814  -0.000008   0.000000  -0.000005  -0.000006   0.000000
    12  C   -0.060008   0.000000   0.000001   0.000192  -0.000107  -0.000002
    13  C    5.037048  -0.000000   0.000000  -0.000000  -0.000000  -0.000000
    14  H   -0.000000   0.593182  -0.033340   0.000153   0.004516  -0.000050
    15  H    0.000000  -0.033340   0.604552  -0.000167  -0.000164   0.003001
    16  H   -0.000000   0.000153  -0.000167   0.594274  -0.029448  -0.030899
    17  H   -0.000000   0.004516  -0.000164  -0.029448   0.576905  -0.027748
    18  H   -0.000000  -0.000050   0.003001  -0.030899  -0.027748   0.589915
    19  H   -0.000000   0.000067  -0.000325   0.000001  -0.000170  -0.000048
    20  H   -0.000000  -0.000152   0.000029   0.003803  -0.000010  -0.000238
    21  H    0.000000  -0.000091   0.004526  -0.000100  -0.000049   0.002637
    22  H   -0.000000   0.002076  -0.005512   0.000002  -0.000001  -0.000002
    23  H   -0.000007  -0.000173  -0.000142  -0.000000   0.000000  -0.000000
    24  H   -0.000216  -0.000022  -0.000002   0.000845   0.000225  -0.000070
    25  H   -0.007099  -0.000000  -0.000000   0.000000   0.000000  -0.000000
    26  H   -0.007602   0.000000  -0.000000   0.000005   0.000001  -0.000000
    27  H    0.384557   0.000000  -0.000000  -0.000000   0.000000   0.000000
    28  H    0.385426  -0.000000   0.000000   0.000000   0.000000   0.000000
    29  H    0.379784  -0.000000  -0.000000   0.000000  -0.000000  -0.000000
              19         20         21         22         23         24
     1  C   -0.028484  -0.028563  -0.031935   0.002969  -0.000073  -0.008336
     2  C   -0.006428   0.005388  -0.005826  -0.043371   0.005418   0.000137
     3  C   -0.006082  -0.006404   0.006281   0.000599   0.004513  -0.039350
     4  C    0.005371  -0.005815  -0.004304  -0.000122   0.000006   0.002114
     5  C    0.386722   0.384953   0.376476   0.000032   0.000001   0.000046
     6  C    0.001611  -0.000217   0.000120   0.003451  -0.043575   0.003551
     7  C    0.005119  -0.000062  -0.000457   0.375511  -0.044483  -0.000003
     8  C    0.002797  -0.000025  -0.000095  -0.026761   0.380920  -0.000147
     9  C   -0.000219   0.003658   0.000004   0.000012  -0.000125   0.369461
    10  C   -0.000102   0.000004   0.000004  -0.000196  -0.006867   0.001070
    11  C   -0.000012  -0.000013  -0.000000   0.000003   0.000314   0.003566
    12  C    0.000022  -0.000011   0.000001  -0.000000  -0.000001  -0.033629
    13  C   -0.000000  -0.000000   0.000000  -0.000000  -0.000007  -0.000216
    14  H    0.000067  -0.000152  -0.000091   0.002076  -0.000173  -0.000022
    15  H   -0.000325   0.000029   0.004526  -0.005512  -0.000142  -0.000002
    16  H    0.000001   0.003803  -0.000100   0.000002  -0.000000   0.000845
    17  H   -0.000170  -0.000010  -0.000049  -0.000001   0.000000   0.000225
    18  H   -0.000048  -0.000238   0.002637  -0.000002  -0.000000  -0.000070
    19  H    0.570400  -0.028447  -0.029312  -0.000139   0.000010  -0.000000
    20  H   -0.028447   0.584091  -0.029532   0.000006   0.000000   0.000375
    21  H   -0.029312  -0.029532   0.602382  -0.000024  -0.000001  -0.000032
    22  H   -0.000139   0.000006  -0.000024   0.584915  -0.006612  -0.000000
    23  H    0.000010   0.000000  -0.000001  -0.006612   0.593563   0.000002
    24  H   -0.000000   0.000375  -0.000032  -0.000000   0.000002   0.596761
    25  H    0.000003   0.000000  -0.000000  -0.000013   0.004622   0.000020
    26  H    0.000000   0.000003  -0.000000   0.000000  -0.000000  -0.004811
    27  H   -0.000000   0.000000  -0.000000  -0.000000   0.000002   0.000003
    28  H   -0.000000  -0.000000  -0.000000   0.000000   0.000000  -0.000005
    29  H    0.000000   0.000000   0.000000   0.000000  -0.000000   0.000003
              25         26         27         28         29
     1  C   -0.000150  -0.000154  -0.000000  -0.000000   0.000000
     2  C    0.000007   0.000002   0.000000  -0.000000  -0.000000
     3  C    0.004053   0.003167   0.000010  -0.000020   0.000037
     4  C    0.000002   0.000002  -0.000000   0.000000   0.000000
     5  C    0.000001   0.000001   0.000000   0.000000  -0.000000
     6  C   -0.037422   0.000794   0.000303  -0.000133  -0.000211
     7  C    0.000338  -0.000000  -0.000000  -0.000000  -0.000000
     8  C   -0.006739   0.000010  -0.000005   0.000003   0.000003
     9  C    0.000416  -0.034312  -0.000200   0.000353  -0.000208
    10  C    0.370318   0.004580  -0.003955   0.002885  -0.002556
    11  C   -0.043708  -0.041225  -0.033855  -0.033684  -0.030439
    12  C    0.004746   0.372631   0.002948  -0.003804  -0.001970
    13  C   -0.007099  -0.007602   0.384557   0.385426   0.379784
    14  H   -0.000000   0.000000   0.000000  -0.000000  -0.000000
    15  H   -0.000000  -0.000000  -0.000000   0.000000  -0.000000
    16  H    0.000000   0.000005  -0.000000   0.000000   0.000000
    17  H    0.000000   0.000001   0.000000   0.000000  -0.000000
    18  H   -0.000000  -0.000000   0.000000   0.000000  -0.000000
    19  H    0.000003   0.000000  -0.000000  -0.000000   0.000000
    20  H    0.000000   0.000003   0.000000  -0.000000   0.000000
    21  H   -0.000000  -0.000000  -0.000000  -0.000000   0.000000
    22  H   -0.000013   0.000000  -0.000000   0.000000   0.000000
    23  H    0.004622  -0.000000   0.000002   0.000000  -0.000000
    24  H    0.000020  -0.004811   0.000003  -0.000005   0.000003
    25  H    0.598251  -0.000167   0.003836   0.000016   0.000656
    26  H   -0.000167   0.593350   0.000059   0.003979   0.000514
    27  H    0.003836   0.000059   0.572326  -0.028164  -0.027402
    28  H    0.000016   0.003979  -0.028164   0.571803  -0.027010
    29  H    0.000656   0.000514  -0.027402  -0.027010   0.564328
 Mulliken charges:
               1
     1  C   -0.069769
     2  C   -0.233121
     3  C    0.076327
     4  C   -0.343365
     5  C   -0.324102
     6  C    0.033509
     7  C   -0.143453
     8  C   -0.093127
     9  C   -0.157657
    10  C   -0.170165
    11  C    0.067808
    12  C   -0.142370
    13  C   -0.410868
    14  H    0.132949
    15  H    0.116615
    16  H    0.113287
    17  H    0.123929
    18  H    0.115568
    19  H    0.127644
    20  H    0.117180
    21  H    0.109328
    22  H    0.113176
    23  H    0.112688
    24  H    0.108443
    25  H    0.108012
    26  H    0.109173
    27  H    0.129536
    28  H    0.128354
    29  H    0.144470
 Sum of Mulliken charges =  -0.00000
 Mulliken charges with hydrogens summed into heavy atoms:
               1
     1  C   -0.069769
     2  C    0.016442
     3  C    0.076327
     4  C    0.009419
     5  C    0.030050
     6  C    0.033509
     7  C   -0.030277
     8  C    0.019561
     9  C   -0.049214
    10  C   -0.062152
    11  C    0.067808
    12  C   -0.033197
    13  C   -0.008508
 APT charges:
               1
     1  C    0.123690
     2  C    0.056956
     3  C   -0.058963
     4  C    0.043858
     5  C    0.016543
     6  C    0.047251
     7  C   -0.026167
     8  C   -0.018826
     9  C   -0.025430
    10  C   -0.085246
    11  C    0.078194
    12  C   -0.092352
    13  C    0.074001
    14  H   -0.022739
    15  H   -0.027259
    16  H   -0.013956
    17  H   -0.015577
    18  H   -0.021332
    19  H   -0.000954
    20  H   -0.009607
    21  H   -0.035324
    22  H   -0.001602
    23  H    0.013048
    24  H    0.026113
    25  H    0.022801
    26  H    0.018405
    27  H   -0.015953
    28  H   -0.016500
    29  H   -0.033075
 Sum of APT charges =   0.00000
 APT charges with hydrogens summed into heavy atoms:
               1
     1  C    0.123690
     2  C    0.006958
     3  C   -0.058963
     4  C   -0.007007
     5  C   -0.029342
     6  C    0.047251
     7  C   -0.027769
     8  C   -0.005778
     9  C    0.000683
    10  C   -0.062446
    11  C    0.078194
    12  C   -0.073947
    13  C    0.008473
 Electronic spatial extent (au):  <R**2>=           2509.0406
 Charge=             -0.0000 electrons
 Dipole moment (field-independent basis, Debye):
    X=              0.1618    Y=             -0.0226    Z=             -0.0202  Tot=              0.1646
 Quadrupole moment (field-independent basis, Debye-Ang):
   XX=            -72.1708   YY=            -74.1569   ZZ=            -82.0977
   XY=              0.2300   XZ=             -0.8346   YZ=              0.3004
 Traceless Quadrupole moment (field-independent basis, Debye-Ang):
   XX=              3.9710   YY=              1.9849   ZZ=             -5.9559
   XY=              0.2300   XZ=             -0.8346   YZ=              0.3004
 Octapole moment (field-independent basis, Debye-Ang**2):
  XXX=             -6.7895  YYY=              2.8884  ZZZ=             -0.5825  XYY=             -4.1597
  XXY=              2.6472  XXZ=             -1.4292  XZZ=              2.0162  YZZ=             -1.1317
  YYZ=              1.6396  XYZ=             -1.4036
 Hexadecapole moment (field-independent basis, Debye-Ang**3):
 XXXX=          -2224.5110 YYYY=           -848.6254 ZZZZ=           -273.9453 XXXY=             16.1309
 XXXZ=             -2.0082 YYYX=             11.7720 YYYZ=              3.2865 ZZZX=             -7.2214
 ZZZY=              0.9156 XXYY=           -511.6744 XXZZ=           -436.8848 YYZZ=           -207.2336
 XXYZ=             -1.1593 YYXZ=              1.5239 ZZXY=             -2.8801
 N-N= 7.752637083878D+02 E-N=-2.718317785644D+03  KE= 5.002404571813D+02
  Exact polarizability:     182.206       6.067     138.203      -3.967       1.710      79.331
 Approx polarizability:     212.413       9.209     181.675      -6.517       2.616     101.910
 Calling FoFJK, ICntrl=    100127 FMM=F ISym2X=0 I1Cent= 0 IOpClX= 0 NMat=1 NMatS=1 NMatT=0.
 ***** Axes restored to original set *****
 -------------------------------------------------------------------
 Center     Atomic                   Forces (Hartrees/Bohr)
 Number     Number              X              Y              Z
 -------------------------------------------------------------------
      1        6          -0.007287824    0.000160120    0.000577690
      2        6           0.003562490   -0.000836923   -0.003496123
      3        6           0.002328623   -0.004865467    0.004147306
      4        6           0.004725163   -0.000201944    0.000336786
      5        6           0.000293367    0.001640055   -0.002837390
      6        6           0.006191316    0.001029362   -0.004003307
      7        6           0.003593372    0.004818907   -0.004694912
      8        6          -0.009316616   -0.006022661    0.003393863
      9        6          -0.001453201    0.008326285   -0.001513547
     10        6          -0.007449867   -0.010354590   -0.000084683
     11        6           0.001612994    0.001821310    0.002996754
     12        6          -0.011046141   -0.000626046   -0.000963605
     13        6           0.009644057    0.001664002    0.002738581
     14        1           0.000074721   -0.003279565    0.001303239
     15        1           0.000760378   -0.003302509    0.000596329
     16        1           0.000348090    0.001319189   -0.000402962
     17        1           0.000139714    0.000808864   -0.001328518
     18        1           0.001053909    0.002389964   -0.001557384
     19        1           0.000471365    0.000552136    0.002700249
     20        1           0.000729747    0.000859721    0.002736301
     21        1          -0.000180625    0.000046690    0.001916112
     22        1          -0.001163308    0.000433021    0.000075898
     23        1           0.002265332    0.000417504    0.000147862
     24        1          -0.002965897    0.001152362    0.001088936
     25        1          -0.001296481   -0.000281644    0.000455048
     26        1           0.001152937    0.001651484    0.000484146
     27        1           0.000333251   -0.000255401   -0.002926928
     28        1          -0.000182119    0.000299886   -0.002756313
     29        1           0.003061255    0.000635885    0.000870569
 -------------------------------------------------------------------
 Cartesian Forces:  Max     0.011046141 RMS     0.003381113
 FormGI is forming the generalized inverse of G from B-inverse, IUseBI=4.

 GradGradGradGradGradGradGradGradGradGradGradGradGradGradGradGradGradGrad
 Berny optimization.
 Internal  Forces:  Max     0.013071920 RMS     0.002555307
 Search for a local minimum.
 Step number   1 out of a maximum of  171
 All quantities printed in internal units (Hartrees-Bohrs-Radians)
 Mixed Optimization -- RFO/linear search
 Second derivative matrix not updated -- analytic derivatives used.
 ITU=  0
     Eigenvalues ---   -0.00014   0.00248   0.00325   0.00401   0.00630
     Eigenvalues ---    0.01231   0.01652   0.01714   0.01758   0.01934
     Eigenvalues ---    0.02088   0.02185   0.02383   0.02431   0.02605
     Eigenvalues ---    0.02677   0.03892   0.04223   0.04417   0.04543
     Eigenvalues ---    0.04554   0.04618   0.04669   0.05153   0.05848
     Eigenvalues ---    0.05919   0.06212   0.07834   0.09358   0.10823
     Eigenvalues ---    0.11286   0.11602   0.11741   0.11898   0.11963
     Eigenvalues ---    0.12183   0.12467   0.12752   0.13913   0.14255
     Eigenvalues ---    0.14697   0.14871   0.14887   0.15310   0.17213
     Eigenvalues ---    0.18401   0.18563   0.18918   0.19197   0.19489
     Eigenvalues ---    0.20878   0.24700   0.26022   0.27298   0.27943
     Eigenvalues ---    0.30375   0.30920   0.33135   0.33383   0.33959
     Eigenvalues ---    0.34003   0.34032   0.34096   0.34145   0.34211
     Eigenvalues ---    0.34246   0.34578   0.34725   0.34794   0.35803
     Eigenvalues ---    0.36115   0.36550   0.36571   0.36843   0.36967
     Eigenvalues ---    0.40125   0.42578   0.47778   0.48113   0.51665
     Eigenvalues ---    0.59469
 RFO step:  Lambda=-4.76170342D-03 EMin=-1.38290333D-04
 Linear search not attempted -- first point.
 Iteration  1 RMS(Cart)=  0.06762059 RMS(Int)=  0.02074170
 Iteration  2 RMS(Cart)=  0.02799667 RMS(Int)=  0.00139943
 Iteration  3 RMS(Cart)=  0.00143370 RMS(Int)=  0.00017903
 Iteration  4 RMS(Cart)=  0.00000279 RMS(Int)=  0.00017901
 Iteration  5 RMS(Cart)=  0.00000000 RMS(Int)=  0.00017901
 Variable       Old X    -DE/DX   Delta X   Delta X   Delta X     New X
                                 (Linear)    (Quad)   (Total)
    R1        2.94171  -0.00798   0.00000  -0.02997  -0.03021   2.91149
    R2        2.89990  -0.00493   0.00000  -0.01185  -0.01208   2.88782
    R3        2.91752  -0.00692   0.00000  -0.02282  -0.02282   2.89470
    R4        2.91979  -0.00504   0.00000  -0.01080  -0.01080   2.90898
    R5        2.83203   0.00217   0.00000   0.00871   0.00870   2.84072
    R6        2.07592   0.00144   0.00000   0.00454   0.00454   2.08046
    R7        2.07381  -0.00086   0.00000  -0.00179  -0.00179   2.07202
    R8        2.67237  -0.00662   0.00000  -0.00668  -0.00676   2.66561
    R9        2.65535  -0.01153   0.00000  -0.02816  -0.02825   2.62709
   R10        2.06993  -0.00086   0.00000  -0.00352  -0.00352   2.06641
   R11        2.07162  -0.00119   0.00000  -0.00389  -0.00389   2.06773
   R12        2.07201  -0.00119   0.00000  -0.00288  -0.00288   2.06912
   R13        2.07104  -0.00096   0.00000  -0.00415  -0.00415   2.06689
   R14        2.07240  -0.00146   0.00000  -0.00513  -0.00513   2.06728
   R15        2.07143  -0.00000   0.00000  -0.00059  -0.00059   2.07083
   R16        2.77104   0.00107   0.00000   0.00293   0.00320   2.77424
   R17        2.64985  -0.00314   0.00000  -0.01524  -0.01526   2.63459
   R18        2.52822  -0.00315   0.00000  -0.00514  -0.00490   2.52332
   R19        2.05169   0.00104   0.00000   0.00135   0.00135   2.05304
   R20        2.04928   0.00122   0.00000   0.00486   0.00486   2.05414
   R21        2.63874  -0.00175   0.00000  -0.00178  -0.00176   2.63698
   R22        2.05216  -0.00008   0.00000  -0.00088  -0.00088   2.05129
   R23        2.63259   0.00019   0.00000   0.00560   0.00569   2.63828
   R24        2.05671  -0.00077   0.00000   0.00071   0.00071   2.05743
   R25        2.62796   0.00230   0.00000   0.00253   0.00264   2.63060
   R26        2.81788   0.01307   0.00000   0.02871   0.02871   2.84659
   R27        2.05428  -0.00059   0.00000  -0.00084  -0.00084   2.05344
   R28        2.06997  -0.00151   0.00000  -0.00344  -0.00344   2.06654
   R29        2.06973  -0.00161   0.00000  -0.00607  -0.00607   2.06366
   R30        2.06829   0.00023   0.00000   0.00079   0.00079   2.06908
    A1        1.93049   0.00159   0.00000  -0.00489  -0.00541   1.92508
    A2        1.86917   0.00088   0.00000   0.01792   0.01808   1.88725
    A3        1.91433  -0.00188   0.00000  -0.00839  -0.00838   1.90594
    A4        1.97601  -0.00282   0.00000  -0.01563  -0.01536   1.96065
    A5        1.88405   0.00025   0.00000  -0.00307  -0.00292   1.88113
    A6        1.88909   0.00195   0.00000   0.01435   0.01415   1.90324
    A7        1.98994  -0.00034   0.00000  -0.00894  -0.00953   1.98042
    A8        1.92776  -0.00201   0.00000  -0.01568  -0.01564   1.91212
    A9        1.91328  -0.00217   0.00000  -0.02109  -0.02077   1.89251
   A10        1.87129   0.00232   0.00000   0.02827   0.02833   1.89962
   A11        1.90081   0.00218   0.00000   0.02191   0.02198   1.92279
   A12        1.85554   0.00019   0.00000  -0.00276  -0.00351   1.85204
   A13        2.08650   0.00213   0.00000  -0.00401  -0.00478   2.08172
   A14        2.12909  -0.00245   0.00000   0.00710   0.00759   2.13668
   A15        2.06611   0.00030   0.00000  -0.00421  -0.00413   2.06198
   A16        1.95843  -0.00070   0.00000  -0.00410  -0.00415   1.95428
   A17        1.94178  -0.00048   0.00000  -0.00176  -0.00178   1.94000
   A18        1.93580  -0.00360   0.00000  -0.02189  -0.02198   1.91382
   A19        1.88077   0.00099   0.00000   0.01059   0.01059   1.89136
   A20        1.86311   0.00210   0.00000   0.00829   0.00819   1.87130
   A21        1.88013   0.00201   0.00000   0.01065   0.01060   1.89073
   A22        1.95545  -0.00272   0.00000  -0.02013  -0.02029   1.93517
   A23        1.94217  -0.00261   0.00000  -0.01618  -0.01630   1.92587
   A24        1.93908  -0.00151   0.00000  -0.01222  -0.01233   1.92675
   A25        1.86989   0.00272   0.00000   0.01901   0.01885   1.88874
   A26        1.87775   0.00228   0.00000   0.01571   0.01557   1.89332
   A27        1.87567   0.00232   0.00000   0.01726   0.01719   1.89286
   A28        2.10619  -0.00345   0.00000  -0.01664  -0.01697   2.08922
   A29        2.09769  -0.00082   0.00000  -0.00484  -0.00496   2.09273
   A30        2.07922   0.00427   0.00000   0.02180   0.02197   2.10119
   A31        2.12833  -0.00349   0.00000  -0.02002  -0.02030   2.10803
   A32        2.06494   0.00104   0.00000   0.00641   0.00652   2.07146
   A33        2.08940   0.00243   0.00000   0.01335   0.01348   2.10287
   A34        2.09800   0.00322   0.00000   0.01661   0.01662   2.11462
   A35        2.07811  -0.00352   0.00000  -0.02377  -0.02377   2.05433
   A36        2.10652   0.00030   0.00000   0.00692   0.00691   2.11342
   A37        2.11102   0.00227   0.00000   0.00734   0.00716   2.11818
   A38        2.11403  -0.00438   0.00000  -0.02086  -0.02083   2.09320
   A39        2.05804   0.00212   0.00000   0.01374   0.01377   2.07180
   A40        2.10111   0.00545   0.00000   0.02511   0.02511   2.12622
   A41        2.09566  -0.00384   0.00000  -0.02199  -0.02200   2.07366
   A42        2.08641  -0.00161   0.00000  -0.00312  -0.00313   2.08328
   A43        2.09292  -0.00963   0.00000  -0.03590  -0.03577   2.05715
   A44        2.09528   0.00441   0.00000   0.00753   0.00745   2.10273
   A45        2.09497   0.00522   0.00000   0.02833   0.02825   2.12322
   A46        2.09742   0.00243   0.00000   0.01258   0.01264   2.11006
   A47        2.07955   0.00074   0.00000   0.00705   0.00701   2.08656
   A48        2.10617  -0.00317   0.00000  -0.01957  -0.01960   2.08656
   A49        1.93852   0.00075   0.00000   0.00065   0.00064   1.93916
   A50        1.94170   0.00009   0.00000   0.00049   0.00046   1.94217
   A51        1.92118   0.00372   0.00000   0.01577   0.01578   1.93697
   A52        1.86696   0.00080   0.00000   0.02025   0.02021   1.88717
   A53        1.89798  -0.00299   0.00000  -0.02477  -0.02475   1.87324
   A54        1.89588  -0.00262   0.00000  -0.01342  -0.01342   1.88247
    D1        0.70974   0.00097   0.00000   0.06412   0.06394   0.77367
    D2       -1.39857  -0.00032   0.00000   0.04525   0.04540  -1.35317
    D3        2.84563   0.00193   0.00000   0.07045   0.07035   2.91598
    D4        2.87045  -0.00095   0.00000   0.05355   0.05341   2.92386
    D5        0.76214  -0.00224   0.00000   0.03469   0.03488   0.79702
    D6       -1.27684   0.00002   0.00000   0.05988   0.05983  -1.21701
    D7       -1.36648   0.00086   0.00000   0.07619   0.07597  -1.29051
    D8        2.80840  -0.00042   0.00000   0.05732   0.05744   2.86583
    D9        0.76942   0.00183   0.00000   0.08252   0.08239   0.85181
   D10       -0.50620  -0.00102   0.00000  -0.07454  -0.07454  -0.58075
   D11        2.69501  -0.00052   0.00000  -0.05213  -0.05213   2.64288
   D12       -2.60412  -0.00136   0.00000  -0.08338  -0.08343  -2.68755
   D13        0.59710  -0.00085   0.00000  -0.06097  -0.06102   0.53608
   D14        1.58826  -0.00223   0.00000  -0.08959  -0.08967   1.49859
   D15       -1.49371  -0.00172   0.00000  -0.06717  -0.06726  -1.56098
   D16        2.98330  -0.00074   0.00000  -0.00681  -0.00645   2.97685
   D17       -1.19116  -0.00029   0.00000   0.00269   0.00301  -1.18816
   D18        0.90130  -0.00048   0.00000   0.00034   0.00065   0.90195
   D19       -1.16738   0.00009   0.00000  -0.01032  -0.01050  -1.17788
   D20        0.94134   0.00054   0.00000  -0.00081  -0.00104   0.94030
   D21        3.03380   0.00035   0.00000  -0.00317  -0.00339   3.03041
   D22        0.92054  -0.00002   0.00000  -0.01414  -0.01423   0.90631
   D23        3.02926   0.00043   0.00000  -0.00463  -0.00477   3.02449
   D24       -1.16146   0.00024   0.00000  -0.00699  -0.00712  -1.16858
   D25        1.07596  -0.00014   0.00000  -0.03049  -0.03068   1.04528
   D26       -3.11422  -0.00033   0.00000  -0.03115  -0.03130   3.13766
   D27       -1.02493  -0.00014   0.00000  -0.02829  -0.02848  -1.05342
   D28       -1.02865  -0.00111   0.00000  -0.01776  -0.01755  -1.04620
   D29        1.06435  -0.00130   0.00000  -0.01841  -0.01818   1.04618
   D30       -3.12955  -0.00111   0.00000  -0.01555  -0.01536   3.13828
   D31        3.10970   0.00098   0.00000  -0.00557  -0.00561   3.10409
   D32       -1.08048   0.00080   0.00000  -0.00623  -0.00624  -1.08672
   D33        1.00881   0.00098   0.00000  -0.00337  -0.00342   1.00539
   D34       -0.49032  -0.00048   0.00000  -0.03048  -0.03019  -0.52051
   D35        2.68599  -0.00013   0.00000  -0.02185  -0.02161   2.66438
   D36        1.64920  -0.00158   0.00000  -0.03575  -0.03591   1.61329
   D37       -1.45768  -0.00124   0.00000  -0.02711  -0.02734  -1.48501
   D38       -2.63303   0.00093   0.00000  -0.01338  -0.01299  -2.64602
   D39        0.54328   0.00128   0.00000  -0.00474  -0.00441   0.53887
   D40        0.03623   0.00036   0.00000   0.05219   0.05171   0.08794
   D41       -3.09061   0.00017   0.00000   0.02661   0.02652  -3.06410
   D42        3.12035  -0.00023   0.00000   0.03096   0.03066  -3.13218
   D43       -0.00649  -0.00042   0.00000   0.00538   0.00547  -0.00102
   D44        3.09775  -0.00011   0.00000  -0.02773  -0.02786   3.06989
   D45       -0.02824  -0.00083   0.00000  -0.04428  -0.04425  -0.07249
   D46        0.01511   0.00033   0.00000  -0.00557  -0.00567   0.00944
   D47       -3.11088  -0.00038   0.00000  -0.02212  -0.02205  -3.13294
   D48        0.25639  -0.00067   0.00000  -0.01667  -0.01683   0.23955
   D49       -2.92096  -0.00046   0.00000  -0.02398  -0.02389  -2.94485
   D50       -2.89980  -0.00052   0.00000   0.00843   0.00825  -2.89155
   D51        0.20603  -0.00032   0.00000   0.00111   0.00120   0.20723
   D52       -0.00557   0.00025   0.00000   0.00059   0.00067  -0.00490
   D53        3.13730   0.00020   0.00000   0.00762   0.00767  -3.13822
   D54       -3.13264   0.00013   0.00000  -0.02427  -0.02436   3.12618
   D55        0.01023   0.00008   0.00000  -0.01725  -0.01737  -0.00714
   D56       -0.00942   0.00046   0.00000   0.00441   0.00462  -0.00479
   D57       -3.11467   0.00033   0.00000   0.01247   0.01254  -3.10212
   D58        3.09698   0.00008   0.00000  -0.00450  -0.00426   3.09273
   D59       -0.00826  -0.00005   0.00000   0.00357   0.00366  -0.00460
   D60       -0.01169  -0.00010   0.00000  -0.00045  -0.00052  -0.01221
   D61        3.14112  -0.00034   0.00000  -0.00749  -0.00761   3.13351
   D62        3.11479   0.00054   0.00000   0.01529   0.01537   3.13016
   D63       -0.01558   0.00029   0.00000   0.00825   0.00828  -0.00730
   D64        0.00926  -0.00006   0.00000  -0.00681  -0.00688   0.00238
   D65       -3.13742  -0.00053   0.00000  -0.01547  -0.01537   3.13039
   D66       -3.13360  -0.00001   0.00000  -0.01381  -0.01393   3.13565
   D67        0.00290  -0.00048   0.00000  -0.02247  -0.02242  -0.01952
   D68       -0.00070  -0.00004   0.00000   0.00671   0.00676   0.00606
   D69        3.12950   0.00023   0.00000   0.01403   0.01402  -3.13966
   D70       -3.13721   0.00043   0.00000   0.01543   0.01542  -3.12179
   D71       -0.00700   0.00070   0.00000   0.02275   0.02268   0.01568
   D72        0.57714  -0.00053   0.00000   0.29412   0.29417   0.87131
   D73        2.65477   0.00103   0.00000   0.32035   0.32044   2.97521
   D74       -1.52592   0.00027   0.00000   0.31432   0.31440  -1.21152
   D75       -2.56955  -0.00104   0.00000   0.28526   0.28516  -2.28439
   D76       -0.49192   0.00051   0.00000   0.31149   0.31143  -0.18049
   D77        1.61058  -0.00024   0.00000   0.30546   0.30539   1.91597
         Item               Value     Threshold  Converged?
 Maximum Force            0.013072     0.000450     NO 
 RMS     Force            0.002555     0.000300     NO 
 Maximum Displacement     0.533604     0.001800     NO 
 RMS     Displacement     0.087097     0.001200     NO 
 Predicted change in Energy=-2.685442D-03
 GradGradGradGradGradGradGradGradGradGradGradGradGradGradGradGradGradGrad

                          Input orientation:                          
 ---------------------------------------------------------------------
 Center     Atomic      Atomic             Coordinates (Angstroms)
 Number     Number       Type             X           Y           Z
 ---------------------------------------------------------------------
      1          6           0       -1.753811   -0.639461   -0.013305
      2          6           0       -2.480749    0.580212    0.584777
      3          6           0       -0.240038   -0.445722    0.065817
      4          6           0       -2.220924   -1.889132    0.739407
      5          6           0       -2.133162   -0.776661   -1.498876
      6          6           0        0.296704    0.852621   -0.060484
      7          6           0       -1.902029    1.896453    0.146208
      8          6           0       -0.605604    2.006882   -0.153909
      9          6           0        0.644074   -1.514138    0.163217
     10          6           0        1.678809    1.034184   -0.083346
     11          6           0        2.564271   -0.040089    0.021705
     12          6           0        2.025479   -1.317322    0.148968
     13          6           0        4.052425    0.189420   -0.020943
     14          1           0       -2.448260    0.526119    1.683900
     15          1           0       -3.540229    0.522217    0.308419
     16          1           0       -1.872640   -2.808816    0.261267
     17          1           0       -1.865587   -1.882642    1.774276
     18          1           0       -3.315226   -1.924358    0.751273
     19          1           0       -1.846563    0.118253   -2.058594
     20          1           0       -1.623269   -1.636196   -1.943792
     21          1           0       -3.214178   -0.921457   -1.605171
     22          1           0       -2.550679    2.767494    0.116979
     23          1           0       -0.174380    2.963863   -0.436415
     24          1           0        0.262557   -2.526374    0.253324
     25          1           0        2.073825    2.044288   -0.178284
     26          1           0        2.689650   -2.173079    0.234544
     27          1           0        4.349314    0.978362    0.675700
     28          1           0        4.601006   -0.718140    0.239729
     29          1           0        4.372714    0.499816   -1.020891
 ---------------------------------------------------------------------
                    Distance matrix (angstroms):
                    1          2          3          4          5
     1  C    0.000000
     2  C    1.540696   0.000000
     3  C    1.528171   2.518462   0.000000
     4  C    1.531811   2.487786   2.541863   0.000000
     5  C    1.539368   2.510683   2.478246   2.501041   0.000000
     6  C    2.536365   2.864405   1.410581   3.807294   3.260028
     7  C    2.545245   1.503247   2.873058   3.845027   3.147263
     8  C    2.888127   2.469253   2.489415   4.311171   3.448257
     9  C    2.558529   3.785305   1.390199   2.946324   3.319558
    10  C    3.819539   4.237263   2.427827   4.942733   4.451292
    11  C    4.359622   5.114103   2.833836   5.179975   4.992051
    12  C    3.843028   4.908834   2.428820   4.325219   4.505774
    13  C    5.865108   6.572822   4.340066   6.652325   6.432658
    14  H    2.172864   1.100932   2.904980   2.603303   3.453489
    15  H    2.155061   1.096465   3.447756   2.782250   2.633104
    16  H    2.189888   3.458318   2.878854   1.093498   2.701042
    17  H    2.180238   2.803388   2.761518   1.094194   3.465302
    18  H    2.161840   2.645173   3.480373   1.094933   2.788845
    19  H    2.183104   2.757356   2.722520   3.463893   1.093752
    20  H    2.176534   3.470071   2.714605   2.760566   1.093957
    21  H    2.178584   2.754778   3.444421   2.723966   1.095838
    22  H    3.501330   2.237840   3.958085   4.709598   3.917440
    23  H    3.956965   3.470442   3.447002   5.396523   4.353983
    24  H    2.774397   4.157700   2.148691   2.609604   3.445457
    25  H    4.677663   4.844577   3.407887   5.895661   5.234544
    26  H    4.707204   5.868246   3.405188   4.944619   5.311709
    27  H    6.351395   6.842262   4.843771   7.169003   7.059135
    28  H    6.360339   7.208053   4.851820   6.939713   6.955227
    29  H    6.312487   7.039502   4.832438   7.230614   6.647126
                    6          7          8          9         10
     6  C    0.000000
     7  C    2.442690   0.000000
     8  C    1.468062   1.335284   0.000000
     9  C    2.402552   4.256179   3.749646   0.000000
    10  C    1.394167   3.690339   2.483881   2.761416   0.000000
    11  C    2.438349   4.869654   3.777437   2.424872   1.396116
    12  C    2.782299   5.074808   4.250255   1.395428   2.388248
    13  C    3.814032   6.196566   5.001808   3.814825   2.520233
    14  H    3.268685   2.130887   2.994257   4.004703   4.518183
    15  H    3.868761   2.144420   3.321144   4.655772   5.258702
    16  H    4.267985   4.706767   4.996868   2.831898   5.244062
    17  H    3.939988   4.115033   4.520381   3.004946   4.951906
    18  H    4.627807   4.118474   4.859635   4.023698   5.864294
    19  H    3.020817   2.833059   2.955456   3.715430   4.143523
    20  H    3.664335   4.114051   4.184655   3.097616   4.636367
    21  H    4.226074   3.567868   4.181625   4.285391   5.484688
    22  H    3.435960   1.086422   2.105998   5.342374   4.575266
    23  H    2.195584   2.112720   1.087004   4.591506   2.698635
    24  H    3.393708   4.925273   4.633568   1.085493   3.846647
    25  H    2.142920   3.991812   2.679801   3.850092   1.088743
    26  H    3.868862   6.136157   5.336822   2.150273   3.377779
    27  H    4.120853   6.340548   5.128091   4.494886   2.776844
    28  H    4.591778   7.009586   5.889777   4.036927   3.422608
    29  H    4.202465   6.533385   5.273192   4.400100   2.902010
                   11         12         13         14         15
    11  C    0.000000
    12  C    1.392055   0.000000
[...]
 000237,-0.00004608,-0.00008752,0.00002198,0.00001901,0.00005570,0.0004
 8388,-0.00012092,-0.00167967,0.10233515,0.00071009,0.00038843,-0.00003
 898,0.00089397,0.00195012,0.00171748,0.00405010,-0.00148318,0.00078146
 ,-0.00013910,0.00008974,-0.00002833,-0.00008597,-0.00005311,0.00012345
 ,-0.01125933,-0.01754379,0.00648785,0.00149174,0.00174141,0.00045730,-
 0.09574102,-0.27353444,0.07758667,-0.00114265,-0.00087196,-0.00006059,
 -0.00214863,0.00066244,-0.00060802,0.00034107,-0.00016789,-0.00022250,
 0.00016519,0.00031521,0.00000080,-0.00001949,-0.00003012,0.00004074,-0
 .00024141,-0.00045492,0.00012918,0.00008676,0.00027512,0.00005226,0.00
 002144,0.00002816,-0.00001041,0.00001632,0.00000971,-0.00001804,-0.000
 05896,-0.00004259,0.00003151,0.00000686,-0.00001211,-0.00000368,0.0000
 1163,0.00001621,-0.00000369,-0.00005405,-0.00000075,-0.00006437,-0.000
 63538,0.00050103,-0.00167650,0.10215035,0.28806368,0.00053331,0.000267
 71,-0.00051827,0.00427475,0.00166350,0.01093535,-0.00081941,0.00037685
 ,0.00161605,-0.00004356,0.00016876,0.00007651,0.00003956,-0.00004935,-
 0.00005513,0.00225446,0.00040685,0.00223713,0.00283152,0.00761431,0.00
 229896,0.03392785,0.07733918,-0.06370861,0.00053561,-0.00012574,0.0000
 8844,0.00011889,-0.00035664,-0.00081720,-0.00004816,-0.00001384,-0.000
 10873,-0.00026617,-0.00007686,0.00009495,0.00000782,-0.00001358,-0.000
 01815,-0.00108825,-0.00214021,0.00042975,0.00049499,0.00165024,-0.0005
 0301,-0.00001630,0.00003809,-0.00007269,-0.00003482,0.00003418,-0.0000
 3367,-0.00002099,-0.00002206,0.00003510,-0.00001064,-0.00001225,0.0000
 4636,-0.00000803,-0.00000301,-0.00002031,-0.00001523,-0.00001981,-0.00
 002027,-0.00168646,-0.00185583,-0.00656939,-0.04058005,-0.08488576,0.0
 5458148,0.00074682,-0.00027733,-0.00019461,0.00010633,-0.00004405,0.00
 028460,0.01217539,0.01722258,-0.00212094,-0.00242237,0.00050511,0.0001
 9835,-0.00016534,-0.00004915,0.00003236,-0.00241315,0.00341810,-0.0003
 6292,0.00011123,-0.00008141,-0.00007163,0.00084396,0.00079260,-0.00015
 981,-0.09306748,-0.09208707,0.01183788,-0.00111713,0.00089835,-0.00011
 293,-0.00559814,0.00020587,-0.00019655,-0.00601680,-0.03027069,0.00376
 724,0.00005425,-0.00127413,0.00037577,-0.00000214,-0.00001757,-0.00000
 340,0.00002263,-0.00003715,-0.00002343,-0.00303174,-0.00046924,0.00024
 634,0.00001668,-0.00022172,0.00012784,0.00017173,0.00003003,-0.0002049
 5,0.00005804,-0.00005940,0.00008454,0.00006866,-0.00005654,-0.00009227
 ,0.00000059,-0.00001168,-0.00002916,-0.00005618,-0.00006320,0.00001446
 ,-0.00020028,0.00028463,-0.00003976,0.09925928,-0.00181261,-0.00068634
 ,-0.00057341,0.00011901,0.00012579,0.00001620,-0.01006338,-0.01828799,
 0.00300986,-0.00122203,-0.00024330,-0.00019917,0.00015070,-0.00004345,
 -0.00004509,0.00401350,-0.00184623,0.00117438,-0.00004269,-0.00012513,
 0.00016016,-0.00098268,-0.00062609,0.00013881,-0.09218552,-0.30469167,
 0.03417508,0.00083445,0.00045766,-0.00013921,-0.00047611,0.00210355,0.
 00068145,0.00078301,-0.00075600,0.00044511,0.00014658,-0.00016276,0.00
 004703,-0.00000934,0.00004593,-0.00003668,0.00012460,0.00000994,-0.000
 01206,-0.00081249,0.00108801,0.00045670,0.00033151,-0.00021144,-0.0002
 4476,-0.00030468,0.00062229,-0.00007226,-0.00005355,0.00006300,-0.0000
 9282,0.00009986,-0.00003081,0.00020827,0.00004778,0.00000372,0.0000553
 9,0.00007774,0.00005014,-0.00002299,0.00026545,-0.00033204,-0.00001193
 ,0.10149067,0.32300951,0.00035717,-0.00047267,-0.00388336,0.00046364,0
 .00002110,0.00008723,0.00169107,0.00235732,0.00348765,0.00049874,0.000
 17554,0.00064765,-0.00078234,0.00024558,0.00018949,-0.00047541,0.00143
 499,0.00704317,-0.00000833,0.00006328,0.00000348,0.00021553,0.00005684
 ,0.00016010,0.01140076,0.03525982,-0.04188808,-0.00026853,-0.00000932,
 -0.00040701,0.00017358,0.00063674,0.00706552,0.00019028,0.00038755,0.0
 0297947,-0.00012711,0.00002659,0.00012439,0.00000599,-0.00001773,-0.00
 002975,0.00003915,-0.00012948,-0.00004286,-0.00022067,-0.00021734,0.00
 042787,0.00028704,-0.00012771,-0.00046101,-0.00009815,-0.00009997,-0.0
 0024469,0.00003925,-0.00004825,0.00000507,-0.00007497,-0.00014894,-0.0
 0025114,0.00002807,-0.00016234,-0.00027389,-0.00000685,-0.00000691,0.0
 0000796,-0.00004072,-0.00002606,-0.00019803,-0.01330307,-0.03837938,0.
 03044475,0.00027510,-0.00152884,0.00043247,0.00017900,-0.00019835,-0.0
 0020281,-0.00569365,0.00062351,-0.00024590,-0.00051114,0.00012031,-0.0
 0013226,-0.00008352,0.00001018,0.00013534,-0.00682597,-0.02916706,0.00
 394913,0.00000514,0.00041836,-0.00003103,0.00120948,-0.00238418,0.0005
 2721,-0.00110071,0.00064232,-0.00008530,-0.09507268,-0.09188243,0.0130
 3525,0.01030087,0.01795726,-0.00231881,-0.00222061,0.00350343,-0.00039
 150,0.00137493,0.00070060,-0.00043296,0.00003488,0.00007632,-0.0000107
 9,-0.00001976,0.00009464,0.00000665,0.00001408,-0.00000497,-0.00001222
 ,0.00002315,0.00000846,0.00000958,-0.00008767,-0.00016898,0.00007900,0
 .00001840,0.00000586,-0.00004522,0.00000537,0.00001187,0.00000239,-0.0
 0004802,0.00000018,-0.00006714,-0.00002373,0.00003101,-0.00000117,-0.0
 0030206,0.00111996,-0.00030415,0.00010010,-0.00011303,0.00001176,0.097
 93632,0.00036855,-0.00022621,0.00006778,0.00010550,0.00004723,-0.00008
 671,-0.00056553,0.00185985,0.00075694,-0.00014587,0.00003760,-0.000081
 51,-0.00009817,-0.00002683,0.00007025,-0.00028852,-0.00247462,0.000804
 86,-0.00022470,0.00023080,0.00005733,0.00174160,0.00064967,-0.00090628
 ,0.00065265,0.00052864,-0.00015703,-0.09206398,-0.29475012,0.03534818,
 -0.01183163,-0.01836685,0.00296635,0.00433304,-0.00186025,0.00117891,-
 0.00150101,0.00074737,-0.00013034,0.00001644,-0.00000003,0.00001126,-0
 .00003664,0.00003580,0.00000816,0.00000909,0.00000212,0.00001223,0.000
 01770,0.00000651,-0.00000828,-0.00004797,-0.00003318,0.00001603,0.0000
 0151,0.00000955,-0.00000222,0.00001238,-0.00000227,0.00000896,-0.00003
 735,-0.00001082,-0.00004813,-0.00005856,0.00001479,0.00003843,-0.00062
 952,0.00039977,0.00003459,-0.00008729,-0.00010317,-0.00014754,0.099447
 12,0.31403348,-0.00021807,0.00018885,0.00008431,0.00009894,-0.00012471
 ,0.00006864,0.00035238,0.00090485,0.00681038,-0.00001572,-0.00012889,0
 .00000111,-0.00003070,-0.00005304,-0.00000649,-0.00013326,0.00063209,0
 .00324199,0.00028906,-0.00002571,-0.00008563,-0.00046562,-0.00075922,-
 0.00420163,0.00008179,-0.00020885,-0.00036570,0.01285891,0.03525757,-0
 .04179683,0.00208977,0.00333184,0.00318426,-0.00079708,0.00090045,0.00
 629392,-0.00014811,-0.00126044,-0.00279447,-0.00001796,0.00000423,0.00
 001523,0.00000317,0.00001229,-0.00001204,-0.00001184,-0.00000630,0.000
 00167,-0.00001621,0.00003605,-0.00002248,-0.00001025,-0.00000992,-0.00
 003231,-0.00003049,0.00002387,0.00000854,0.00000169,-0.00001843,-0.000
 00116,0.00002182,-0.00001829,-0.00000245,0.00012145,0.00005287,0.00026
 729,0.00016537,0.00021961,0.00019158,0.00001684,-0.00012491,-0.0010721
 7,-0.01398569,-0.03948909,0.03071731,0.00002888,0.00146749,0.00006105,
 -0.00042354,-0.00021656,-0.00019408,-0.00509307,-0.00261693,0.00005742
 ,0.00002025,0.00012796,-0.00007630,-0.00013498,0.00000643,0.00015109,-
 0.00056113,-0.00093573,0.00015931,-0.00000239,-0.00009608,0.00003797,0
 .00010914,0.00007261,-0.00004423,-0.01370941,0.02608565,-0.00351175,0.
 00001467,-0.00285958,0.00046656,0.00877923,-0.00934811,0.00134263,-0.1
 6443353,0.13545226,-0.01769172,0.00146069,-0.00117781,-0.00006430,0.00
 001370,0.00001761,0.00002515,-0.00011883,0.00014158,0.00007162,0.00000
 520,-0.00003337,-0.00001569,0.00001178,-0.00000446,0.00002405,-0.00005
 008,-0.00004576,0.00002827,0.00000952,0.00000221,-0.00000871,0.0000234
 5,-0.00001599,-0.00001477,-0.00005967,-0.00001967,-0.00008026,-0.00000
 034,0.00002984,-0.00000586,-0.00001923,0.00006498,-0.00001560,0.000899
 97,-0.00022581,0.00004519,0.00056196,-0.00054347,0.00003078,0.17257960
 ,-0.00031940,0.00021901,0.00002003,-0.00000274,-0.00003401,-0.00000167
 ,-0.00153492,0.00146703,0.00064700,0.00007535,0.00000902,0.00003116,0.
 00007071,-0.00000078,-0.00001842,-0.00114253,-0.00017690,-0.00005436,0
 .00003044,0.00001072,0.00001833,0.00005504,0.00005149,-0.00013387,-0.0
 0491127,0.00693625,-0.00052153,-0.00356858,-0.00412452,0.00143999,0.02
 026380,-0.01768284,0.00277450,0.13499470,-0.23224249,0.02605169,0.0018
 6561,0.00077073,-0.00109646,-0.00000706,0.00002433,0.00000372,0.000012
 67,0.00000462,-0.00000959,-0.00001579,-0.00001934,-0.00000911,-0.00000
 778,-0.00000400,0.00000712,0.00001846,-0.00000129,-0.00000408,-0.00000
 481,-0.00000353,-0.00000876,-0.00000844,0.00000281,-0.00001744,0.00001
 778,-0.00000045,0.00002081,0.00002900,-0.00000423,0.00000355,-0.000034
 20,0.00004717,-0.00001489,0.00036353,0.00063547,-0.00060206,0.00105906
 ,-0.00109624,0.00019671,-0.14566962,0.24469073,-0.00038882,0.00005109,
 0.00027160,0.00003707,-0.00028242,-0.00008726,0.00053516,0.00066891,0.
 00697693,0.00006784,-0.00001669,-0.00002651,-0.00001354,0.00003583,0.0
 0000729,0.00019898,-0.00016855,-0.00076155,0.00010304,0.00008935,0.000
 10469,-0.00007811,-0.00020843,-0.00105179,0.00053502,-0.00050347,0.002
 63545,0.00047795,0.00162572,0.00639076,-0.00218540,0.00302455,0.003346
 65,-0.01774992,0.02578550,-0.03976171,-0.00081352,-0.00000544,-0.00408
 515,-0.00007740,0.00006520,0.00002113,0.00003025,-0.00002282,-0.000056
 73,-0.00001693,0.00000074,0.00002280,0.00001651,0.00000376,-0.00000635
 ,-0.00000003,-0.00000352,0.00001491,0.00000764,-0.00000287,-0.00001238
 ,-0.00001164,-0.00000054,-0.00001177,0.00001351,0.00001861,-0.00000457
 ,0.00003311,0.00002511,0.00010930,0.00003343,0.00003563,0.00001831,-0.
 00003603,-0.00060049,-0.00388557,-0.00019822,0.00019609,0.00022813,0.0
 1913982,-0.02911837,0.02938958,0.00014230,0.00000456,-0.00025913,-0.00
 004355,-0.00006321,-0.00006726,0.00000912,-0.00030680,0.00002428,-0.00
 008714,0.00006396,-0.00003670,-0.00020690,-0.00001730,0.00010635,-0.00
 016918,-0.00008883,0.00130886,-0.00005568,-0.00000042,0.00001000,0.000
 04714,-0.00010071,0.00001894,-0.00080085,0.00033830,0.00143206,0.00026
 730,-0.00118903,0.00083580,-0.01294213,-0.01252018,-0.02870198,-0.0011
 4589,0.00149236,-0.00006352,-0.06918781,-0.02846726,-0.07438425,0.0000
 1386,-0.00000765,0.00001858,-0.00003917,0.00003052,0.00001018,0.000017
 24,0.00001093,0.00000226,0.00002162,0.00000515,-0.00000302,-0.00004492
 ,-0.00002535,0.00000979,0.00001784,0.00000130,0.00001151,0.00002112,0.
 00000803,0.00002333,-0.00005948,-0.00000835,-0.00008141,-0.00002030,0.
 00002050,0.00000101,-0.00000792,0.00004490,-0.00002666,-0.00015125,-0.
 00007503,0.00002452,-0.00002517,0.00042477,-0.00070422,0.00002841,-0.0
 0031985,-0.00056073,0.07757986,-0.00003457,0.00001540,-0.00011404,0.00
 004584,-0.00001235,-0.00001390,-0.00004754,0.00117587,-0.00015350,-0.0
 0001334,0.00000173,-0.00001680,-0.00002187,-0.00001532,0.00001671,-0.0
 0134095,-0.00077971,0.00019520,-0.00005364,0.00004317,-0.00002073,0.00
 004903,-0.00007126,0.00002257,0.00090257,-0.00035907,0.00077084,0.0021
 4237,-0.00028771,-0.00010410,-0.00277933,-0.00165981,-0.00325418,-0.00
 192135,-0.00026393,0.00048120,-0.02728810,-0.08001344,-0.08519320,0.00
 000576,-0.00000256,0.00002175,-0.00000499,-0.00000794,-0.00000081,0.00
 000225,-0.00000021,0.00000284,-0.00000010,0.00000009,0.00000832,-0.000
 00593,-0.00000058,0.00000700,0.00000379,0.00000198,0.00001290,0.000002
 95,-0.00000431,-0.00000461,-0.00000787,-0.00000755,-0.00001089,-0.0000
 0789,-0.00000143,0.00000029,0.00000326,0.00000811,0.00000304,-0.000046
 42,-0.00004336,-0.00005022,-0.00000544,-0.00016554,-0.00008094,-0.0000
 4439,-0.00009232,-0.00053757,0.03238206,0.08275412,-0.00002366,0.00000
 396,-0.00006421,0.00000918,-0.00000496,-0.00000787,0.00023783,-0.00003
 670,-0.00000069,0.00000890,0.00000046,-0.00000413,-0.00001445,-0.00000
 357,0.00001104,-0.00029466,0.00010035,0.00013114,-0.00001936,0.0000338
 5,-0.00000343,-0.00000656,-0.00005565,0.00003581,-0.00035993,0.0000090
 7,-0.00018769,0.00014703,-0.00048986,0.00073284,-0.00060071,0.00134558
 ,0.00430189,0.00045476,0.00070062,-0.00018520,-0.07080793,-0.08479805,
 -0.25822542,0.00000144,-0.00000407,0.00000804,-0.00000407,0.00000015,0
 .00000058,0.00000321,0.00000439,0.00000200,0.00000343,-0.00000120,0.00
 000154,-0.00000406,0.00000420,-0.00000058,0.00000453,-0.00000267,0.000
 00073,0.00000411,0.00000683,0.00000306,-0.00000612,0.00000086,-0.00000
 164,-0.00000907,0.00000147,-0.00000231,-0.00000108,0.00000774,-0.00001
 550,-0.00001945,0.00000488,0.00002801,-0.00021923,0.00001698,-0.000365
 29,-0.00005273,0.00009503,-0.00004130,0.07875459,0.09297784,0.27815982
 ,0.00007739,-0.00008364,0.00001164,0.00001043,-0.00000654,-0.00001825,
 0.00018171,-0.00029273,0.00018718,-0.00003336,0.00002745,-0.00001620,-
 0.00006329,0.00000150,0.00003410,-0.00010040,0.00156108,-0.00080141,-0
 .00005293,0.00016623,-0.00002562,-0.00037439,-0.00031030,-0.00001409,-
 0.00026900,-0.00004352,-0.00027378,-0.00602454,-0.00279847,0.00080750,
 -0.01584789,0.02905534,0.00529789,0.00186147,0.00223335,-0.00082430,-0
 .11192255,0.11233256,0.02504508,0.00000236,-0.00001775,0.00000205,-0.0
 0001820,-0.00000445,-0.00000176,0.00000421,-0.00001637,-0.00000718,0.0
 0000505,0.00000789,-0.00000031,-0.00001188,-0.00001938,0.00000386,0.00
 000653,0.00000391,0.00001417,0.00000487,-0.00000833,0.00000423,-0.0000
 2003,-0.00000147,-0.00002495,-0.00005797,0.00000543,0.00004019,0.00001
 463,0.00001209,0.00000206,0.00000599,-0.00001307,0.00000369,0.00002251
 ,0.00001680,0.00017328,0.00006727,-0.00123222,0.00051100,0.00485152,-0
 .00930955,-0.00085683,0.12379188,-0.00000884,0.00000289,-0.00009826,0.
 00001262,0.00000524,-0.00000042,-0.00008337,0.00025733,0.00003988,0.00
 002829,-0.00000064,0.00001133,-0.00000861,-0.00000379,-0.00001043,-0.0
 0042705,0.00016584,-0.00013228,-0.00000893,-0.00001957,0.00002915,-0.0
 0001167,-0.00000204,-0.00003854,0.00037561,0.00027426,0.00032236,-0.00
 075052,-0.00000091,-0.00021417,-0.00363384,0.00553591,0.00195296,-0.00
 186817,0.00069954,0.00017784,0.11531950,-0.25048267,-0.04219904,-0.000
 00183,0.00001437,-0.00000316,0.00001596,-0.00000038,-0.00000093,-0.000
 00600,0.00000049,-0.00000212,-0.00000461,-0.00000209,0.00000439,0.0000
 1432,0.00000318,-0.00000372,-0.00000280,-0.00000455,-0.00000736,-0.000
 00518,0.00000464,-0.00000320,0.00001027,-0.00000055,0.00000220,0.00000
 769,0.00000132,0.00000356,-0.00001150,0.00000881,-0.00000408,0.0000546
 1,0.00000399,-0.00003655,-0.00024154,0.00032326,-0.00001361,0.00032394
 ,0.00015319,-0.00034235,0.00463887,-0.00904191,-0.00066644,-0.12347332
 ,0.26867200,-0.00003954,0.00000947,0.00004853,0.00000390,0.00000867,-0
 .00001393,-0.00000207,0.00038540,-0.00009443,0.00000611,-0.00001056,0.
 00000161,0.00003885,0.00000910,-0.00000874,-0.00061839,-0.00015958,0.0
 0036116,-0.00002816,0.00001147,-0.00000889,0.00000849,-0.00003417,-0.0
 0011975,0.00019190,-0.00008498,-0.00017196,0.00008776,0.00008599,0.000
 93365,-0.00173995,0.00111949,-0.00132845,0.00002086,-0.00038017,0.0001
 4757,0.02590970,-0.04230987,-0.05663745,-0.00000164,-0.00000194,0.0000
 0350,0.00000233,-0.00000470,0.00000197,-0.00000213,-0.00000039,0.00000
 501,-0.00000238,-0.00000455,-0.00000088,0.00000412,0.00000512,0.000001
 35,-0.00000267,0.00000421,0.00000060,-0.00000417,-0.00000746,-0.000003
 61,0.00001019,-0.00000078,0.00001137,0.00000417,0.00000304,0.00002199,
 0.00000157,0.00000095,-0.00000070,-0.00000016,-0.00000696,-0.00003580,
 0.00003971,-0.00019807,-0.00015677,0.00018655,0.00026724,0.00019325,0.
 01517190,-0.02553159,-0.00430131,-0.02643954,0.04683673,0.05585262,0.0
 0009831,0.00008235,-0.00005339,-0.00002938,-0.00005723,-0.00003685,0.0
 0002180,-0.00001131,0.00028196,-0.00003100,0.00001575,-0.00001944,-0.0
 0011616,-0.00002485,0.00006416,0.00000376,-0.00019810,-0.00042246,-0.0
 0003410,-0.00000320,0.00001553,0.00007862,-0.00005991,-0.00000694,-0.0
 0015810,-0.00118700,-0.00100913,0.00158507,-0.00159116,-0.00056687,-0.
 00896836,-0.02328943,0.02315093,-0.00493757,0.00126414,0.00027114,-0.0
 6332591,-0.04274941,0.04839897,0.00001782,0.00000096,0.00000172,-0.000
 02159,0.00003245,0.00000418,0.00000886,0.00001919,0.00000949,0.0000160
 4,0.00000427,-0.00000736,-0.00002503,0.00000204,0.00000327,0.00000182,
 0.00001168,0.00000161,0.00001133,-0.00000160,0.00001875,-0.00003055,-0
 .00000371,-0.00004626,0.00000002,0.00001169,-0.00000976,-0.00002109,0.
 00005388,0.00000343,-0.00039964,-0.00009286,-0.00006928,-0.00004659,0.
 00101306,0.00027996,-0.00000751,-0.00007693,0.00038997,0.00196998,0.00
 739340,-0.00632910,0.00388862,0.00974609,-0.01280735,0.07045055,-0.000
 04922,0.00005883,0.00019516,-0.00000595,0.00000188,-0.00001279,0.00014
 383,0.00040082,-0.00015265,-0.00002757,-0.00000490,-0.00001348,0.00005
 102,0.00000390,0.00001227,-0.00076047,-0.00025737,-0.00060181,-0.00005
 146,0.00005875,-0.00002731,0.00000196,-0.00007697,0.00004327,0.0000893
 2,-0.00035060,-0.00027713,0.00207501,0.00041106,-0.00044803,-0.0021588
 5,-0.00411205,0.00168977,-0.00155082,0.00028008,0.00043549,-0.04317658
 ,-0.16892584,0.12877558,0.00000495,-0.00001167,0.00000686,-0.00001246,
 0.00000240,0.00000311,0.00000807,0.00000648,0.00001030,0.00000450,-0.0
 0000094,-0.00000871,-0.00001363,0.00000015,0.00000342,-0.00000213,0.00
 001251,0.00000634,0.00000228,-0.00001064,0.00000191,0.00000021,-0.0000
 0201,0.00000729,-0.00001245,0.00000003,0.00000130,0.00000038,0.0000217
 7,0.00000855,-0.00011205,-0.00002922,0.00001712,-0.00013564,0.00018968
 ,0.00056107,0.00006077,0.00046041,0.00018747,0.00372375,0.00882985,-0.
 00925109,-0.00779252,-0.01656715,0.01998885,0.04969576,0.17961076,-0.0
 0001876,-0.00003551,0.00002180,-0.00000173,0.00002520,0.00001440,0.000
 05741,-0.00055693,0.00003932,0.00001235,-0.00001577,-0.00000268,0.0000
 3601,0.00000681,-0.00002431,0.00047097,0.00011013,0.00009935,0.0000189
 2,-0.00002651,-0.00000074,0.00000473,0.00007277,-0.00004324,-0.0007565
 4,-0.00001383,-0.00007309,-0.00073780,0.00044892,0.00073479,-0.0015129
 8,-0.00256879,0.00180725,0.00007170,-0.00021581,0.00008112,0.04916533,
 0.12931510,-0.18265199,-0.00001029,-0.00000170,-0.00000491,0.00000880,
 -0.00000813,0.00000258,-0.00000280,-0.00000011,-0.00000024,-0.00000521
 ,-0.00000132,0.00000186,0.00000943,0.00000574,0.00000067,-0.00000647,0
 .00000034,-0.00000354,-0.00000454,-0.00000203,-0.00000121,0.00001504,0
 .00000590,0.00001549,0.00000677,-0.00000392,0.00000451,0.00001002,-0.0
 0002567,0.00000969,-0.00001513,-0.00001117,-0.00002842,0.00045593,-0.0
 0033813,-0.00019898,-0.00005146,0.00003370,0.00006188,0.00712491,0.020
 56657,-0.02000995,-0.00283372,-0.00560373,0.00529849,-0.05151090,-0.14
 116213,0.19485010\\-0.00000039,0.00000110,0.00000031,0.00000044,0.0000
 0196,-0.00000059,-0.00000033,0.00000016,0.00000014,-0.00000120,0.00000
 188,0.00000101,-0.00000034,0.00000038,0.00000033,0.00000075,-0.0000003
 0,-0.00000091,0.00000129,0.00000123,-0.00000137,0.00000142,0.00000020,
 -0.00000136,-0.00000083,-0.00000046,0.00000067,0.00000074,-0.00000126,
 -0.00000058,0.00000003,-0.00000152,0.00000061,-0.00000069,-0.00000131,
 0.00000059,0.00000062,-0.00000266,0.00000129,0.00000038,0.00000258,-0.
 00000056,0.00000044,0.00000250,-0.00000058,-0.00000176,0.00000132,0.00
 000162,-0.00000123,0.00000231,0.00000105,-0.00000121,0.00000260,0.0000
 0099,0.00000028,-0.00000015,-0.00000026,-0.00000088,-0.00000026,0.0000
 0088,-0.00000043,0.00000103,0.00000037,0.00000193,0.00000164,-0.000001
 99,0.00000208,-0.00000029,-0.00000199,-0.00000161,-0.00000006,0.000001
 62,0.00000144,-0.00000161,-0.00000113,-0.00000137,-0.00000164,0.000001
 58,-0.00000019,-0.00000177,-0.00000075,0.00000021,-0.00000389,-0.00000
 017,0.00000040,-0.00000373,-0.00000081\\\@
 The archive entry for this job was punched.


 YOU CANNOT THROW TO THE GROUND THE LETTERS OF
 THE GREEK ALPHABET AND PICK UP THE ILIAD.
        - RUFUS CHOATE, 1799-1859
 Job cpu time:       0 days 16 hours 16 minutes 32.5 seconds.
 Elapsed time:       0 days  0 hours 32 minutes  5.5 seconds.
 File lengths (MBytes):  RWF=    239 Int=      0 D2E=      0 Chk=      8 Scr=      1
 Normal termination of Gaussian 16 at Tue Mar 15 14:57:34 2022.
